Be4P3Rb                                 
    1.000000000000000     
     3.644469    0.000000   -0.000000
     0.000000    3.644469    0.000000
     0.000000    0.000000    9.783819
   Rb   Be   P 
     1     4     3
Direct
  0.000000  0.000000  0.500000
  0.000000  0.500000  0.142972
  0.000000  0.500000  0.857028
  0.500000  0.000000  0.857028
  0.500000  0.000000  0.142972
  0.000000  0.000000  0.000000
  0.500000  0.500000  0.260602
  0.500000  0.500000  0.739398
 
   48   48  128
 -57.096     -51.235     -34.726     -10.514      17.340      44.602      67.724      84.389      93.679      95.937    
  92.439      84.999      75.593      66.028      57.313      49.607      42.935      37.271      32.565      28.756    
  25.772      23.545      22.008      21.109      20.813      21.109      22.008      23.545      25.772      28.756    
  32.565      37.271      42.935      49.607      57.313      66.028      75.593      84.999      92.439      95.937    
  93.679      84.389      67.724      44.602      17.340     -10.514     -34.726     -51.235     -51.235     -45.563    
 -29.592     -6.1805      20.725      47.012      69.235      85.143      93.854      95.714      91.981      84.439    
  75.031      65.526      56.876      49.231      42.610      36.991      32.323      28.545      25.586      23.376    
  21.852      20.961      20.668      20.961      21.852      23.376      25.586      28.545      32.323      36.991    
  42.610      49.231      56.876      65.526      75.031      84.439      91.981      95.714      93.854      85.143    
  69.235      47.012      20.725     -6.1805     -29.592     -45.563     -34.726     -29.592     -15.146      5.9928    
  30.207      53.727      73.396      87.160      94.233      94.971      90.582      82.768      73.372      64.048    
  55.592      48.122      41.656      36.169      31.612      27.924      25.037      22.881      21.394      20.524    
  20.238      20.524      21.394      22.881      25.037      27.924      31.612      36.169      41.656      48.122    
  55.592      64.048      73.372      82.768      90.582      94.971      94.233      87.160      73.396      53.727    
  30.207      5.9928     -15.146     -29.592     -10.514     -6.1805      5.9928      23.743      43.943      63.335    
  79.196      89.769      94.414      93.507      88.182      80.014      70.694      61.679      53.534      46.345    
  40.125      34.850      30.471      26.929      24.156      22.086      20.658      19.823      19.548      19.823    
  20.658      22.086      24.156      26.929      30.471      34.850      40.125      46.345      53.534      61.679    
  70.694      80.014      88.182      93.507      94.414      89.769      79.196      63.335      43.943      23.743    
  5.9928     -6.1805      17.340      20.725      30.207      43.943      59.387      73.889      85.244      92.055    
  93.864      91.072      84.728      76.249      67.134      58.551      50.816      43.997      38.103      33.107    
  28.963      25.613      22.991      21.034      19.684      18.894      18.634      18.894      19.684      21.034    
  22.991      25.613      28.963      33.107      38.103      43.997      50.816      58.551      67.134      76.249    
  84.728      91.072      93.864      92.055      85.244      73.889      59.387      43.943      30.207      20.725    
  44.602      47.012      53.727      63.335      73.889      83.369      90.110      93.098      92.069      87.459    
  80.222      71.606      62.885      54.823      47.578      41.200      35.693      31.031      27.166      24.043    
  21.600      19.777      18.519      17.782      17.540      17.782      18.519      19.777      21.600      24.043    
  27.166      31.031      35.693      41.200      47.578      54.823      62.885      71.606      80.222      87.459    
  92.069      93.098      90.110      83.369      73.889      63.335      53.727      47.012      67.724      69.235    
  73.396      79.196      85.244      90.110      92.644      92.194      88.688      82.594      74.776      66.301    
  58.149      50.674      43.975      38.088      33.012      28.720      25.165      22.295      20.050      18.375    
  17.217      16.540      16.317      16.540      17.217      18.375      20.050      22.295      25.165      28.720    
  33.012      38.088      43.975      50.674      58.149      66.301      74.776      82.594      88.688      92.194    
  92.644      90.110      85.244      79.196      73.396      69.235      84.389      85.143      87.160      89.769    
  92.055      93.098      92.194      89.011      83.648      76.597      68.628      60.624      53.126      46.281    
  40.162      34.796      30.176      26.275      23.048      20.444      18.407      16.886      15.834      15.218    
  15.015      15.218      15.834      16.886      18.407      20.444      23.048      26.275      30.176      34.796    
  40.162      46.281      53.126      60.624      68.628      76.597      83.648      89.011      92.194      93.098    
  92.055      89.769      87.160      85.143      93.679      93.854      94.233      94.414      93.864      92.069    
  88.688      83.648      77.181      69.788      62.144      54.817      48.004      41.808      36.283      31.448    
  27.293      23.790      20.895      18.560      16.733      15.367      14.421      13.866      13.683      13.866    
  14.421      15.367      16.733      18.560      20.895      23.790      27.293      31.448      36.283      41.808    
  48.004      54.817      62.144      69.788      77.181      83.648      88.688      92.069      93.864      94.414    
  94.233      93.854      95.937      95.714      94.971      93.507      91.072      87.459      82.594      76.597    
  69.788      62.655      55.678      49.066      42.946      37.398      32.463      28.154      24.458      21.346    
  18.777      16.704      15.081      13.866      13.023      12.528      12.364      12.528      13.023      13.866    
  15.081      16.704      18.777      21.346      24.458      28.154      32.463      37.398      42.946      49.066    
  55.678      62.655      69.788      76.597      82.594      87.459      91.072      93.507      94.971      95.714    
  92.439      91.981      90.582      88.182      84.728      80.222      74.776      68.628      62.144      55.678    
  49.425      43.528      38.087      33.169      28.805      25.002      21.747      19.009      16.750      14.926    
  13.496      12.423      11.678      11.239      11.094      11.239      11.678      12.423      13.496      14.926    
  16.750      19.009      21.747      25.002      28.805      33.169      38.087      43.528      49.425      55.678    
  62.144      68.628      74.776      80.222      84.728      88.182      90.582      91.981      84.999      84.439    
  82.768      80.014      76.249      71.606      66.301      60.624      54.817      49.066      43.528      38.320    
  33.530      29.210      25.385      22.059      19.216      16.827      14.856      13.262      12.011      11.069    
  10.413      10.026      9.8984      10.026      10.413      11.069      12.011      13.262      14.856      16.827    
  19.216      22.059      25.385      29.210      33.530      38.320      43.528      49.066      54.817      60.624    
  66.301      71.606      76.249      80.014      82.768      84.439      75.593      75.031      73.372      70.694    
  67.134      62.885      58.149      53.126      48.004      42.946      38.087      33.530      29.347      25.583    
  22.257      19.370      16.904      14.832      13.121      11.736      10.646      9.8235      9.2495      8.9102    
  8.7979      8.9102      9.2495      9.8235      10.646      11.736      13.121      14.832      16.904      19.370    
  22.257      25.583      29.347      33.530      38.087      42.946      48.004      53.126      58.149      62.885    
  67.134      70.694      73.372      75.031      66.028      65.526      64.048      61.679      58.551      54.823    
  50.674      46.281      41.808      37.398      33.169      29.210      25.583      22.325      19.451      16.959    
  14.830      13.041      11.561      10.361      9.4138      8.6983      8.1979      7.9017      7.8036      7.9017    
  8.1979      8.6983      9.4138      10.361      11.561      13.041      14.830      16.959      19.451      22.325    
  25.583      29.210      33.169      37.398      41.808      46.281      50.674      54.823      58.551      61.679    
  64.048      65.526      57.313      56.876      55.592      53.534      50.816      47.578      43.975      40.162    
  36.283      32.463      28.805      25.385      22.257      19.451      16.978      14.833      13.000      11.457    
  10.179      9.1407      8.3199      7.6987      7.2638      7.0062      6.9208      7.0062      7.2638      7.6987    
  8.3199      9.1407      10.179      11.457      13.000      14.833      16.978      19.451      22.257      25.385    
  28.805      32.463      36.283      40.162      43.975      47.578      50.816      53.534      55.592      56.876    
  49.607      49.231      48.122      46.345      43.997      41.200      38.088      34.796      31.448      28.154    
  25.002      22.059      19.370      16.959      14.833      12.988      11.409      10.078      8.9735      8.0745    
  7.3631      6.8243      6.4471      6.2237      6.1497      6.2237      6.4471      6.8243      7.3631      8.0745    
  8.9735      10.078      11.409      12.988      14.833      16.959      19.370      22.059      25.002      28.154    
  31.448      34.796      38.088      41.200      43.997      46.345      48.122      49.231      42.935      42.610    
  41.656      40.125      38.103      35.693      33.012      30.176      27.293      24.458      21.747      19.216    
  16.904      14.830      13.000      11.409      10.046      8.8940      7.9363      7.1561      6.5385      6.0711    
  5.7442      5.5508      5.4867      5.5508      5.7442      6.0712      6.5385      7.1561      7.9363      8.8940    
  10.046      11.409      13.000      14.830      16.904      19.216      21.747      24.458      27.293      30.176    
  33.012      35.693      38.103      40.125      41.656      42.610      37.271      36.991      36.169      34.850    
  33.107      31.031      28.720      26.275      23.790      21.346      19.009      16.827      14.832      13.041    
  11.457      10.078      8.8940      7.8915      7.0572      6.3773      5.8395      5.4330      5.1492      4.9815    
  4.9261      4.9815      5.1492      5.4330      5.8395      6.3773      7.0572      7.8916      8.8940      10.078    
  11.457      13.041      14.832      16.827      19.009      21.346      23.790      26.275      28.720      31.031    
  33.107      34.850      36.169      36.991      32.565      32.323      31.612      30.471      28.963      27.166    
  25.165      23.048      20.895      18.777      16.750      14.856      13.121      11.561      10.179      8.9735    
  7.9363      7.0572      6.3251      5.7288      5.2577      4.9024      4.6548      4.5089      4.4607      4.5089    
  4.6548      4.9024      5.2577      5.7288      6.3251      7.0572      7.9363      8.9735      10.179      11.561    
  13.121      14.856      16.750      18.777      20.895      23.048      25.165      27.166      28.963      30.471    
  31.612      32.323      28.756      28.545      27.924      26.929      25.613      24.043      22.295      20.444    
  18.560      16.704      14.926      13.262      11.736      10.361      9.1407      8.0745      7.1561      6.3773    
  5.7288      5.2011      4.7848      4.4714      4.2535      4.1252      4.0829      4.1252      4.2535      4.4714    
  4.7848      5.2011      5.7288      6.3773      7.1561      8.0745      9.1407      10.361      11.736      13.262    
  14.926      16.704      18.560      20.444      22.295      24.043      25.613      26.929      27.924      28.545    
  25.772      25.586      25.037      24.156      22.991      21.600      20.050      18.407      16.733      15.081    
  13.496      12.011      10.646      9.4138      8.3199      7.3631      6.5385      5.8395      5.2577      4.7848    
  4.4122      4.1321      3.9376      3.8232      3.7854      3.8232      3.9376      4.1321      4.4122      4.7848    
  5.2577      5.8395      6.5385      7.3631      8.3199      9.4138      10.646      12.011      13.496      15.081    
  16.733      18.407      20.050      21.600      22.991      24.156      25.037      25.586      23.545      23.376    
  22.881      22.086      21.034      19.777      18.375      16.886      15.367      13.866      12.423      11.069    
  9.8235      8.6983      7.6987      6.8243      6.0711      5.4330      4.9024      4.4714      4.1321      3.8771    
  3.7001      3.5961      3.5617      3.5961      3.7001      3.8771      4.1321      4.4714      4.9024      5.4330    
  6.0711      6.8243      7.6987      8.6983      9.8235      11.069      12.423      13.866      15.367      16.886    
  18.375      19.777      21.034      22.086      22.881      23.376      22.008      21.852      21.394      20.658    
  19.684      18.519      17.217      15.834      14.421      13.023      11.678      10.413      9.2495      8.1979    
  7.2638      6.4471      5.7442      5.1492      4.6548      4.2535      3.9376      3.7001      3.5352      3.4382    
  3.4062      3.4382      3.5352      3.7001      3.9376      4.2535      4.6548      5.1492      5.7442      6.4471    
  7.2638      8.1979      9.2495      10.413      11.678      13.023      14.421      15.834      17.217      18.519    
  19.684      20.658      21.394      21.852      21.109      20.961      20.524      19.823      18.894      17.782    
  16.540      15.218      13.866      12.528      11.239      10.026      8.9102      7.9017      7.0062      6.2237    
  5.5508      4.9815      4.5089      4.1252      3.8232      3.5961      3.4382      3.3453      3.3146      3.3453    
  3.4382      3.5961      3.8232      4.1252      4.5089      4.9815      5.5508      6.2237      7.0062      7.9017    
  8.9102      10.026      11.239      12.528      13.866      15.218      16.540      17.782      18.894      19.823    
  20.524      20.961      20.813      20.668      20.238      19.548      18.634      17.540      16.317      15.015    
  13.683      12.364      11.094      9.8984      8.7979      7.8036      6.9208      6.1497      5.4867      4.9261    
  4.4607      4.0829      3.7854      3.5617      3.4062      3.3146      3.2844      3.3146      3.4062      3.5617    
  3.7854      4.0829      4.4607      4.9261      5.4867      6.1497      6.9208      7.8036      8.7979      9.8984    
  11.094      12.364      13.683      15.015      16.317      17.540      18.634      19.548      20.238      20.668    
  21.109      20.961      20.524      19.823      18.894      17.782      16.540      15.218      13.866      12.528    
  11.239      10.026      8.9102      7.9017      7.0062      6.2237      5.5508      4.9815      4.5089      4.1252    
  3.8232      3.5961      3.4382      3.3453      3.3146      3.3453      3.4382      3.5961      3.8232      4.1252    
  4.5089      4.9815      5.5508      6.2237      7.0062      7.9017      8.9102      10.026      11.239      12.528    
  13.866      15.218      16.540      17.782      18.894      19.823      20.524      20.961      22.008      21.852    
  21.394      20.658      19.684      18.519      17.217      15.834      14.421      13.023      11.678      10.413    
  9.2495      8.1979      7.2638      6.4471      5.7442      5.1492      4.6548      4.2535      3.9376      3.7001    
  3.5352      3.4382      3.4062      3.4382      3.5352      3.7001      3.9376      4.2535      4.6548      5.1492    
  5.7442      6.4471      7.2638      8.1979      9.2495      10.413      11.678      13.023      14.421      15.834    
  17.217      18.519      19.684      20.658      21.394      21.852      23.545      23.376      22.881      22.086    
  21.034      19.777      18.375      16.886      15.367      13.866      12.423      11.069      9.8235      8.6983    
  7.6987      6.8243      6.0711      5.4330      4.9024      4.4714      4.1321      3.8771      3.7001      3.5961    
  3.5617      3.5961      3.7001      3.8771      4.1321      4.4714      4.9024      5.4330      6.0711      6.8243    
  7.6987      8.6983      9.8235      11.069      12.423      13.866      15.367      16.886      18.375      19.777    
  21.034      22.086      22.881      23.376      25.772      25.586      25.037      24.156      22.991      21.600    
  20.050      18.407      16.733      15.081      13.496      12.011      10.646      9.4138      8.3199      7.3631    
  6.5385      5.8395      5.2577      4.7848      4.4122      4.1321      3.9376      3.8232      3.7854      3.8232    
  3.9376      4.1321      4.4122      4.7848      5.2577      5.8395      6.5385      7.3631      8.3199      9.4138    
  10.646      12.011      13.496      15.081      16.733      18.407      20.050      21.600      22.991      24.156    
  25.037      25.586      28.756      28.545      27.924      26.929      25.613      24.043      22.295      20.444    
  18.560      16.704      14.926      13.262      11.736      10.361      9.1407      8.0745      7.1561      6.3773    
  5.7288      5.2011      4.7848      4.4714      4.2535      4.1252      4.0829      4.1252      4.2535      4.4714    
  4.7848      5.2011      5.7288      6.3773      7.1561      8.0745      9.1407      10.361      11.736      13.262    
  14.926      16.704      18.560      20.444      22.295      24.043      25.613      26.929      27.924      28.545    
  32.565      32.323      31.612      30.471      28.963      27.166      25.165      23.048      20.895      18.777    
  16.750      14.856      13.121      11.561      10.179      8.9735      7.9363      7.0572      6.3251      5.7288    
  5.2577      4.9024      4.6548      4.5089      4.4607      4.5089      4.6548      4.9024      5.2577      5.7288    
  6.3251      7.0572      7.9363      8.9735      10.179      11.561      13.121      14.856      16.750      18.777    
  20.895      23.048      25.165      27.166      28.963      30.471      31.612      32.323      37.271      36.991    
  36.169      34.850      33.107      31.031      28.720      26.275      23.790      21.346      19.009      16.827    
  14.832      13.041      11.457      10.078      8.8940      7.8916      7.0572      6.3773      5.8395      5.4330    
  5.1492      4.9815      4.9261      4.9815      5.1492      5.4330      5.8395      6.3773      7.0572      7.8915    
  8.8940      10.078      11.457      13.041      14.832      16.827      19.009      21.346      23.790      26.275    
  28.720      31.031      33.107      34.850      36.169      36.991      42.935      42.610      41.656      40.125    
  38.103      35.693      33.012      30.176      27.293      24.458      21.747      19.216      16.904      14.830    
  13.000      11.409      10.046      8.8940      7.9363      7.1561      6.5385      6.0712      5.7442      5.5508    
  5.4867      5.5508      5.7442      6.0711      6.5385      7.1561      7.9363      8.8940      10.046      11.409    
  13.000      14.830      16.904      19.216      21.747      24.458      27.293      30.176      33.012      35.693    
  38.103      40.125      41.656      42.610      49.607      49.231      48.122      46.345      43.997      41.200    
  38.088      34.796      31.448      28.154      25.002      22.059      19.370      16.959      14.833      12.988    
  11.409      10.078      8.9735      8.0745      7.3631      6.8243      6.4471      6.2237      6.1497      6.2237    
  6.4471      6.8243      7.3631      8.0745      8.9735      10.078      11.409      12.988      14.833      16.959    
  19.370      22.059      25.002      28.154      31.448      34.796      38.088      41.200      43.997      46.345    
  48.122      49.231      57.313      56.876      55.592      53.534      50.816      47.578      43.975      40.162    
  36.283      32.463      28.805      25.385      22.257      19.451      16.978      14.833      13.000      11.457    
  10.179      9.1407      8.3199      7.6987      7.2638      7.0062      6.9208      7.0062      7.2638      7.6987    
  8.3199      9.1407      10.179      11.457      13.000      14.833      16.978      19.451      22.257      25.385    
  28.805      32.463      36.283      40.162      43.975      47.578      50.816      53.534      55.592      56.876    
  66.028      65.526      64.048      61.679      58.551      54.823      50.674      46.281      41.808      37.398    
  33.169      29.210      25.583      22.325      19.451      16.959      14.830      13.041      11.561      10.361    
  9.4138      8.6983      8.1979      7.9017      7.8036      7.9017      8.1979      8.6983      9.4138      10.361    
  11.561      13.041      14.830      16.959      19.451      22.325      25.583      29.210      33.169      37.398    
  41.808      46.281      50.674      54.823      58.551      61.679      64.048      65.526      75.593      75.031    
  73.372      70.694      67.134      62.885      58.149      53.126      48.004      42.946      38.087      33.530    
  29.347      25.583      22.257      19.370      16.904      14.832      13.121      11.736      10.646      9.8235    
  9.2495      8.9102      8.7979      8.9102      9.2495      9.8235      10.646      11.736      13.121      14.832    
  16.904      19.370      22.257      25.583      29.347      33.530      38.087      42.946      48.004      53.126    
  58.149      62.885      67.134      70.694      73.372      75.031      84.999      84.439      82.768      80.014    
  76.249      71.606      66.301      60.624      54.817      49.066      43.528      38.320      33.530      29.210    
  25.385      22.059      19.216      16.827      14.856      13.262      12.011      11.069      10.413      10.026    
  9.8984      10.026      10.413      11.069      12.011      13.262      14.856      16.827      19.216      22.059    
  25.385      29.210      33.530      38.320      43.528      49.066      54.817      60.624      66.301      71.606    
  76.249      80.014      82.768      84.439      92.439      91.981      90.582      88.182      84.728      80.222    
  74.776      68.628      62.144      55.678      49.425      43.528      38.087      33.169      28.805      25.002    
  21.747      19.009      16.750      14.926      13.496      12.423      11.678      11.239      11.094      11.239    
  11.678      12.423      13.496      14.926      16.750      19.009      21.747      25.002      28.805      33.169    
  38.087      43.528      49.425      55.678      62.144      68.628      74.776      80.222      84.728      88.182    
  90.582      91.981      95.937      95.714      94.971      93.507      91.072      87.459      82.594      76.597    
  69.788      62.655      55.678      49.066      42.946      37.398      32.463      28.154      24.458      21.346    
  18.777      16.704      15.081      13.866      13.023      12.528      12.364      12.528      13.023      13.866    
  15.081      16.704      18.777      21.346      24.458      28.154      32.463      37.398      42.946      49.066    
  55.678      62.655      69.788      76.597      82.594      87.459      91.072      93.507      94.971      95.714    
  93.679      93.854      94.233      94.414      93.864      92.069      88.688      83.648      77.181      69.788    
  62.144      54.817      48.004      41.808      36.283      31.448      27.293      23.790      20.895      18.560    
  16.733      15.367      14.421      13.866      13.683      13.866      14.421      15.367      16.733      18.560    
  20.895      23.790      27.293      31.448      36.283      41.808      48.004      54.817      62.144      69.788    
  77.181      83.648      88.688      92.069      93.864      94.414      94.233      93.854      84.389      85.143    
  87.160      89.769      92.055      93.098      92.194      89.011      83.648      76.597      68.628      60.624    
  53.126      46.281      40.162      34.796      30.176      26.275      23.048      20.444      18.407      16.886    
  15.834      15.218      15.015      15.218      15.834      16.886      18.407      20.444      23.048      26.275    
  30.176      34.796      40.162      46.281      53.126      60.624      68.628      76.597      83.648      89.011    
  92.194      93.098      92.055      89.769      87.160      85.143      67.724      69.235      73.396      79.196    
  85.244      90.110      92.644      92.194      88.688      82.594      74.776      66.301      58.149      50.674    
  43.975      38.088      33.012      28.720      25.165      22.295      20.050      18.375      17.217      16.540    
  16.317      16.540      17.217      18.375      20.050      22.295      25.165      28.720      33.012      38.088    
  43.975      50.674      58.149      66.301      74.776      82.594      88.688      92.194      92.644      90.110    
  85.244      79.196      73.396      69.235      44.602      47.012      53.727      63.335      73.889      83.369    
  90.110      93.098      92.069      87.459      80.222      71.606      62.885      54.823      47.578      41.200    
  35.693      31.031      27.166      24.043      21.600      19.777      18.519      17.782      17.540      17.782    
  18.519      19.777      21.600      24.043      27.166      31.031      35.693      41.200      47.578      54.823    
  62.885      71.606      80.222      87.459      92.069      93.098      90.110      83.369      73.889      63.335    
  53.727      47.012      17.340      20.725      30.207      43.943      59.387      73.889      85.244      92.055    
  93.864      91.072      84.728      76.249      67.134      58.551      50.816      43.997      38.103      33.107    
  28.963      25.613      22.991      21.034      19.684      18.894      18.634      18.894      19.684      21.034    
  22.991      25.613      28.963      33.107      38.103      43.997      50.816      58.551      67.134      76.249    
  84.728      91.072      93.864      92.055      85.244      73.889      59.387      43.943      30.207      20.725    
 -10.514     -6.1805      5.9928      23.743      43.943      63.335      79.196      89.769      94.414      93.507    
  88.182      80.014      70.694      61.679      53.534      46.345      40.125      34.850      30.471      26.929    
  24.156      22.086      20.658      19.823      19.548      19.823      20.658      22.086      24.156      26.929    
  30.471      34.850      40.125      46.345      53.534      61.679      70.694      80.014      88.182      93.507    
  94.414      89.769      79.196      63.335      43.943      23.743      5.9928     -6.1805     -34.726     -29.592    
 -15.146      5.9928      30.207      53.727      73.396      87.160      94.233      94.971      90.582      82.768    
  73.372      64.048      55.592      48.122      41.656      36.169      31.612      27.924      25.037      22.881    
  21.394      20.524      20.238      20.524      21.394      22.881      25.037      27.924      31.612      36.169    
  41.656      48.122      55.592      64.048      73.372      82.768      90.582      94.971      94.233      87.160    
  73.396      53.727      30.207      5.9928     -15.146     -29.592     -51.235     -45.563     -29.592     -6.1805    
  20.725      47.012      69.235      85.143      93.854      95.714      91.981      84.439      75.031      65.526    
  56.876      49.231      42.610      36.991      32.323      28.545      25.586      23.376      21.852      20.961    
  20.668      20.961      21.852      23.376      25.586      28.545      32.323      36.991      42.610      49.231    
  56.876      65.526      75.031      84.439      91.981      95.714      93.854      85.143      69.235      47.012    
  20.725     -6.1805     -29.592     -45.563     -51.166     -45.484     -29.486     -6.0367      20.910      47.236    
  69.490      85.421      94.146      96.014      92.284      84.743      75.334      65.825      57.169      49.515    
  42.884      37.252      32.572      28.780      25.809      23.589      22.057      21.161      20.866      21.161    
  22.057      23.589      25.809      28.780      32.572      37.252      42.884      49.515      57.169      65.825    
  75.334      84.743      92.284      96.014      94.146      85.421      69.490      47.236      20.911     -6.0367    
 -29.486     -45.484     -45.484     -39.987     -24.513     -1.8430      24.181      49.557      70.935      86.130    
  94.293      95.775      91.818      84.182      74.773      65.324      56.734      49.139      42.560      36.973    
  32.330      28.569      25.622      23.421      21.902      21.013      20.720      21.013      21.902      23.421    
  25.622      28.569      32.330      36.973      42.560      49.139      56.734      65.324      74.773      84.182    
  91.818      95.775      94.293      86.130      70.935      49.557      24.181     -1.8430     -24.513     -39.987    
 -29.486     -24.513     -10.523      9.9335      33.337      56.019      74.911      88.020      94.591      94.985    
  90.398      82.505      73.118      63.852      55.454      48.033      41.607      36.152      31.619      27.949    
  25.073      22.925      21.443      20.575      20.290      20.575      21.443      22.925      25.073      27.949    