   8   8   0   0
  0.1624377E+02  0.3644469E-09  0.3644469E-09  0.9783819E-09  0.5000000E-15
   1.0000000000000000E-004
  CAR 
 Be4P3Rb                                 
     26.05411018   -108.1108950410001      3.67580657      1.00000000
   -108.111  0.0000E+00  0.0000E+00
   -108.097  0.0000E+00  0.0000E+00
   -108.084  0.0000E+00  0.0000E+00
   -108.071  0.0000E+00  0.0000E+00
   -108.057  0.0000E+00  0.0000E+00
   -108.044  0.0000E+00  0.0000E+00
   -108.030  0.0000E+00  0.0000E+00
   -108.017  0.0000E+00  0.0000E+00
   -108.004  0.0000E+00  0.0000E+00
   -107.990  0.0000E+00  0.0000E+00
   -107.977  0.0000E+00  0.0000E+00
   -107.963  0.0000E+00  0.0000E+00
   -107.950  0.0000E+00  0.0000E+00
   -107.936  0.0000E+00  0.0000E+00
   -107.923  0.0000E+00  0.0000E+00
   -107.910  0.0000E+00  0.0000E+00
   -107.896  0.0000E+00  0.0000E+00
   -107.883  0.0000E+00  0.0000E+00
   -107.869  0.0000E+00  0.0000E+00
   -107.856  0.0000E+00  0.0000E+00
   -107.843  0.0000E+00  0.0000E+00
   -107.829  0.0000E+00  0.0000E+00
   -107.816  0.0000E+00  0.0000E+00
   -107.802  0.0000E+00  0.0000E+00
   -107.789  0.0000E+00  0.0000E+00
   -107.775  0.0000E+00  0.0000E+00
   -107.762  0.0000E+00  0.0000E+00
   -107.749  0.0000E+00  0.0000E+00
   -107.735  0.0000E+00  0.0000E+00
   -107.722  0.0000E+00  0.0000E+00
   -107.708  0.0000E+00  0.0000E+00
   -107.695  0.0000E+00  0.0000E+00
   -107.682  0.0000E+00  0.0000E+00
   -107.668  0.0000E+00  0.0000E+00
   -107.655  0.0000E+00  0.0000E+00
   -107.641  0.0000E+00  0.0000E+00
   -107.628  0.0000E+00  0.0000E+00
   -107.614  0.0000E+00  0.0000E+00
   -107.601  0.0000E+00  0.0000E+00
   -107.588  0.0000E+00  0.0000E+00
   -107.574  0.0000E+00  0.0000E+00
   -107.561  0.0000E+00  0.0000E+00
   -107.547  0.0000E+00  0.0000E+00
   -107.534  0.0000E+00  0.0000E+00
   -107.521  0.0000E+00  0.0000E+00
   -107.507  0.0000E+00  0.0000E+00
   -107.494  0.0000E+00  0.0000E+00
   -107.480  0.0000E+00  0.0000E+00
   -107.467  0.0000E+00  0.0000E+00
   -107.453  0.0000E+00  0.0000E+00
   -107.440  0.0000E+00  0.0000E+00
   -107.427  0.0000E+00  0.0000E+00
   -107.413  0.0000E+00  0.0000E+00
   -107.400  0.0000E+00  0.0000E+00
   -107.386  0.0000E+00  0.0000E+00
   -107.373  0.0000E+00  0.0000E+00
   -107.360  0.0000E+00  0.0000E+00
   -107.346  0.0000E+00  0.0000E+00
   -107.333  0.0000E+00  0.0000E+00
   -107.319  0.0000E+00  0.0000E+00
   -107.306  0.0000E+00  0.0000E+00
   -107.292  0.0000E+00  0.0000E+00
   -107.279  0.0000E+00  0.0000E+00
   -107.266  0.0000E+00  0.0000E+00
   -107.252  0.0000E+00  0.0000E+00
   -107.239  0.0000E+00  0.0000E+00
   -107.225  0.0000E+00  0.0000E+00
   -107.212  0.0000E+00  0.0000E+00
   -107.199  0.0000E+00  0.0000E+00
   -107.185  0.0000E+00  0.0000E+00
   -107.172  0.0000E+00  0.0000E+00
   -107.158  0.0000E+00  0.0000E+00
   -107.145  0.0000E+00  0.0000E+00
   -107.131  0.0000E+00  0.0000E+00
   -107.118  0.0000E+00  0.0000E+00
   -107.105  0.0000E+00  0.0000E+00
   -107.091  0.0000E+00  0.0000E+00
   -107.078  0.0000E+00  0.0000E+00
   -107.064  0.0000E+00  0.0000E+00
   -107.051  0.0000E+00  0.0000E+00
   -107.038  0.0000E+00  0.0000E+00
   -107.024  0.0000E+00  0.0000E+00
   -107.011  0.0000E+00  0.0000E+00
   -106.997  0.0000E+00  0.0000E+00
   -106.984  0.0000E+00  0.0000E+00
   -106.970  0.0000E+00  0.0000E+00
   -106.957  0.0000E+00  0.0000E+00
   -106.944  0.0000E+00  0.0000E+00
   -106.930  0.0000E+00  0.0000E+00
   -106.917  0.0000E+00  0.0000E+00
   -106.903  0.0000E+00  0.0000E+00
   -106.890  0.0000E+00  0.0000E+00
   -106.877  0.0000E+00  0.0000E+00
   -106.863  0.0000E+00  0.0000E+00
   -106.850  0.0000E+00  0.0000E+00
   -106.836  0.0000E+00  0.0000E+00
   -106.823  0.0000E+00  0.0000E+00
   -106.809  0.0000E+00  0.0000E+00
   -106.796  0.0000E+00  0.0000E+00
   -106.783  0.0000E+00  0.0000E+00
   -106.769  0.0000E+00  0.0000E+00
   -106.756  0.0000E+00  0.0000E+00
   -106.742  0.0000E+00  0.0000E+00
   -106.729  0.0000E+00  0.0000E+00
   -106.716  0.0000E+00  0.0000E+00
   -106.702  0.0000E+00  0.0000E+00
   -106.689  0.0000E+00  0.0000E+00
   -106.675  0.0000E+00  0.0000E+00
   -106.662  0.0000E+00  0.0000E+00
   -106.648  0.0000E+00  0.0000E+00
   -106.635  0.0000E+00  0.0000E+00
   -106.622  0.0000E+00  0.0000E+00
   -106.608  0.0000E+00  0.0000E+00
   -106.595  0.0000E+00  0.0000E+00
   -106.581  0.0000E+00  0.0000E+00
   -106.568  0.0000E+00  0.0000E+00
   -106.555  0.0000E+00  0.0000E+00
   -106.541  0.0000E+00  0.0000E+00
   -106.528  0.0000E+00  0.0000E+00
   -106.514  0.0000E+00  0.0000E+00
   -106.501  0.0000E+00  0.0000E+00
   -106.487  0.0000E+00  0.0000E+00
   -106.474  0.0000E+00  0.0000E+00
   -106.461  0.0000E+00  0.0000E+00
   -106.447  0.0000E+00  0.0000E+00
   -106.434  0.0000E+00  0.0000E+00
   -106.420  0.0000E+00  0.0000E+00
   -106.407  0.0000E+00  0.0000E+00
   -106.394  0.0000E+00  0.0000E+00
   -106.380  0.0000E+00  0.0000E+00
   -106.367  0.0000E+00  0.0000E+00
   -106.353  0.0000E+00  0.0000E+00
   -106.340  0.0000E+00  0.0000E+00
   -106.327  0.0000E+00  0.0000E+00
   -106.313  0.0000E+00  0.0000E+00
   -106.300  0.0000E+00  0.0000E+00
   -106.286  0.0000E+00  0.0000E+00
   -106.273  0.0000E+00  0.0000E+00
   -106.259  0.0000E+00  0.0000E+00
   -106.246  0.0000E+00  0.0000E+00
   -106.233  0.0000E+00  0.0000E+00
   -106.219  0.0000E+00  0.0000E+00
   -106.206  0.0000E+00  0.0000E+00
   -106.192  0.0000E+00  0.0000E+00
   -106.179  0.0000E+00  0.0000E+00
   -106.166  0.0000E+00  0.0000E+00
   -106.152  0.0000E+00  0.0000E+00
   -106.139  0.0000E+00  0.0000E+00
   -106.125  0.0000E+00  0.0000E+00
   -106.112  0.0000E+00  0.0000E+00
   -106.098  0.0000E+00  0.0000E+00
   -106.085  0.0000E+00  0.0000E+00
   -106.072  0.0000E+00  0.0000E+00
   -106.058  0.0000E+00  0.0000E+00
   -106.045  0.0000E+00  0.0000E+00
   -106.031  0.0000E+00  0.0000E+00
   -106.018  0.0000E+00  0.0000E+00
   -106.005  0.0000E+00  0.0000E+00
   -105.991  0.0000E+00  0.0000E+00
   -105.978  0.0000E+00  0.0000E+00
   -105.964  0.0000E+00  0.0000E+00
   -105.951  0.0000E+00  0.0000E+00
   -105.937  0.0000E+00  0.0000E+00
   -105.924  0.0000E+00  0.0000E+00
   -105.911  0.0000E+00  0.0000E+00
   -105.897  0.0000E+00  0.0000E+00
   -105.884  0.0000E+00  0.0000E+00
   -105.870  0.0000E+00  0.0000E+00
   -105.857  0.0000E+00  0.0000E+00
   -105.844  0.0000E+00  0.0000E+00
   -105.830  0.0000E+00  0.0000E+00
   -105.817  0.0000E+00  0.0000E+00
   -105.803  0.0000E+00  0.0000E+00
   -105.790  0.0000E+00  0.0000E+00
   -105.776  0.0000E+00  0.0000E+00
   -105.763  0.0000E+00  0.0000E+00
   -105.750  0.0000E+00  0.0000E+00
   -105.736  0.0000E+00  0.0000E+00
   -105.723  0.0000E+00  0.0000E+00
   -105.709  0.0000E+00  0.0000E+00
   -105.696  0.0000E+00  0.0000E+00
   -105.683  0.0000E+00  0.0000E+00
   -105.669  0.0000E+00  0.0000E+00
   -105.656  0.0000E+00  0.0000E+00
   -105.642  0.0000E+00  0.0000E+00
   -105.629  0.0000E+00  0.0000E+00
   -105.615  0.0000E+00  0.0000E+00
   -105.602  0.0000E+00  0.0000E+00
   -105.589  0.0000E+00  0.0000E+00
   -105.575  0.0000E+00  0.0000E+00
   -105.562  0.0000E+00  0.0000E+00
   -105.548  0.0000E+00  0.0000E+00
   -105.535  0.0000E+00  0.0000E+00
   -105.522  0.0000E+00  0.0000E+00
   -105.508  0.0000E+00  0.0000E+00
   -105.495  0.0000E+00  0.0000E+00
   -105.481  0.0000E+00  0.0000E+00
   -105.468  0.0000E+00  0.0000E+00
   -105.454  0.0000E+00  0.0000E+00
   -105.441  0.0000E+00  0.0000E+00
   -105.428  0.0000E+00  0.0000E+00
   -105.414  0.0000E+00  0.0000E+00
   -105.401  0.0000E+00  0.0000E+00
   -105.387  0.0000E+00  0.0000E+00
   -105.374  0.0000E+00  0.0000E+00
   -105.361  0.0000E+00  0.0000E+00
   -105.347  0.0000E+00  0.0000E+00
   -105.334  0.0000E+00  0.0000E+00
   -105.320  0.0000E+00  0.0000E+00
   -105.307  0.0000E+00  0.0000E+00
   -105.293  0.0000E+00  0.0000E+00
   -105.280  0.0000E+00  0.0000E+00
   -105.267  0.0000E+00  0.0000E+00
   -105.253  0.0000E+00  0.0000E+00
   -105.240  0.0000E+00  0.0000E+00
   -105.226  0.0000E+00  0.0000E+00
   -105.213  0.0000E+00  0.0000E+00
   -105.200  0.0000E+00  0.0000E+00
   -105.186  0.0000E+00  0.0000E+00
   -105.173  0.0000E+00  0.0000E+00
   -105.159  0.0000E+00  0.0000E+00
   -105.146  0.0000E+00  0.0000E+00
   -105.132  0.0000E+00  0.0000E+00
   -105.119  0.0000E+00  0.0000E+00
   -105.106  0.0000E+00  0.0000E+00
   -105.092  0.0000E+00  0.0000E+00
   -105.079  0.0000E+00  0.0000E+00
   -105.065  0.0000E+00  0.0000E+00
   -105.052  0.0000E+00  0.0000E+00
   -105.039  0.0000E+00  0.0000E+00
   -105.025  0.0000E+00  0.0000E+00
   -105.012  0.0000E+00  0.0000E+00
   -104.998  0.0000E+00  0.0000E+00
   -104.985  0.0000E+00  0.0000E+00
   -104.971  0.0000E+00  0.0000E+00
   -104.958  0.0000E+00  0.0000E+00
   -104.945  0.0000E+00  0.0000E+00
   -104.931  0.0000E+00  0.0000E+00
   -104.918  0.0000E+00  0.0000E+00
   -104.904  0.0000E+00  0.0000E+00
   -104.891  0.0000E+00  0.0000E+00
   -104.878  0.0000E+00  0.0000E+00
   -104.864  0.0000E+00  0.0000E+00
   -104.851  0.0000E+00  0.0000E+00
   -104.837  0.0000E+00  0.0000E+00
   -104.824  0.0000E+00  0.0000E+00
   -104.810  0.0000E+00  0.0000E+00
   -104.797  0.0000E+00  0.0000E+00
   -104.784  0.0000E+00  0.0000E+00
   -104.770  0.0000E+00  0.0000E+00
   -104.757  0.0000E+00  0.0000E+00
   -104.743  0.0000E+00  0.0000E+00
   -104.730  0.0000E+00  0.0000E+00
   -104.717  0.0000E+00  0.0000E+00
   -104.703  0.0000E+00  0.0000E+00
   -104.690  0.0000E+00  0.0000E+00
   -104.676  0.0000E+00  0.0000E+00
   -104.663  0.0000E+00  0.0000E+00
   -104.649  0.0000E+00  0.0000E+00
   -104.636  0.0000E+00  0.0000E+00
   -104.623  0.0000E+00  0.0000E+00
   -104.609  0.0000E+00  0.0000E+00
   -104.596  0.0000E+00  0.0000E+00
   -104.582  0.0000E+00  0.0000E+00
   -104.569  0.0000E+00  0.0000E+00
   -104.556  0.0000E+00  0.0000E+00
   -104.542  0.0000E+00  0.0000E+00
   -104.529  0.0000E+00  0.0000E+00
   -104.515  0.0000E+00  0.0000E+00
   -104.502  0.0000E+00  0.0000E+00
   -104.488  0.0000E+00  0.0000E+00
   -104.475  0.0000E+00  0.0000E+00
   -104.462  0.0000E+00  0.0000E+00
   -104.448  0.0000E+00  0.0000E+00
   -104.435  0.0000E+00  0.0000E+00
   -104.421  0.0000E+00  0.0000E+00
   -104.408  0.0000E+00  0.0000E+00
   -104.395  0.0000E+00  0.0000E+00
   -104.381  0.0000E+00  0.0000E+00
   -104.368  0.0000E+00  0.0000E+00
   -104.354  0.0000E+00  0.0000E+00
   -104.341  0.0000E+00  0.0000E+00
   -104.327  0.0000E+00  0.0000E+00
   -104.314  0.0000E+00  0.0000E+00
   -104.301  0.0000E+00  0.0000E+00
   -104.287  0.0000E+00  0.0000E+00
   -104.274  0.0000E+00  0.0000E+00
   -104.260  0.0000E+00  0.0000E+00
   -104.247  0.0000E+00  0.0000E+00
   -104.234  0.0000E+00  0.0000E+00
   -104.220  0.0000E+00  0.0000E+00
   -104.207  0.0000E+00  0.0000E+00
   -104.193  0.0000E+00  0.0000E+00
   -104.180  0.0000E+00  0.0000E+00
   -104.166  0.0000E+00  0.0000E+00
   -104.153  0.0000E+00  0.0000E+00
   -104.140  0.0000E+00  0.0000E+00
   -104.126  0.0000E+00  0.0000E+00
   -104.113  0.0000E+00  0.0000E+00
   -104.099  0.0000E+00  0.0000E+00
   -104.086  0.0000E+00  0.0000E+00
   -104.073  0.0000E+00  0.0000E+00
   -104.059  0.0000E+00  0.0000E+00
   -104.046  0.0000E+00  0.0000E+00
   -104.032  0.0000E+00  0.0000E+00
   -104.019  0.0000E+00  0.0000E+00
   -104.005  0.0000E+00  0.0000E+00
   -103.992  0.0000E+00  0.0000E+00
   -103.979  0.0000E+00  0.0000E+00
   -103.965  0.0000E+00  0.0000E+00
   -103.952  0.0000E+00  0.0000E+00
   -103.938  0.0000E+00  0.0000E+00
   -103.925  0.0000E+00  0.0000E+00
   -103.912  0.0000E+00  0.0000E+00
   -103.898  0.0000E+00  0.0000E+00
   -103.885  0.0000E+00  0.0000E+00
   -103.871  0.0000E+00  0.0000E+00
   -103.858  0.0000E+00  0.0000E+00
   -103.844  0.0000E+00  0.0000E+00
   -103.831  0.0000E+00  0.0000E+00
   -103.818  0.0000E+00  0.0000E+00
   -103.804  0.0000E+00  0.0000E+00
   -103.791  0.0000E+00  0.0000E+00
   -103.777  0.0000E+00  0.0000E+00
   -103.764  0.0000E+00  0.0000E+00
   -103.751  0.0000E+00  0.0000E+00
   -103.737  0.0000E+00  0.0000E+00
   -103.724  0.0000E+00  0.0000E+00
   -103.710  0.0000E+00  0.0000E+00
   -103.697  0.0000E+00  0.0000E+00
   -103.683  0.0000E+00  0.0000E+00
   -103.670  0.0000E+00  0.0000E+00
   -103.657  0.0000E+00  0.0000E+00
   -103.643  0.0000E+00  0.0000E+00
   -103.630  0.0000E+00  0.0000E+00
   -103.616  0.0000E+00  0.0000E+00
   -103.603  0.0000E+00  0.0000E+00
   -103.590  0.0000E+00  0.0000E+00
   -103.576  0.0000E+00  0.0000E+00
   -103.563  0.0000E+00  0.0000E+00
   -103.549  0.0000E+00  0.0000E+00
   -103.536  0.0000E+00  0.0000E+00
   -103.522  0.0000E+00  0.0000E+00
   -103.509  0.0000E+00  0.0000E+00
   -103.496  0.0000E+00  0.0000E+00
   -103.482  0.0000E+00  0.0000E+00
   -103.469  0.0000E+00  0.0000E+00
   -103.455  0.0000E+00  0.0000E+00
   -103.442  0.0000E+00  0.0000E+00
   -103.429  0.0000E+00  0.0000E+00
   -103.415  0.0000E+00  0.0000E+00
   -103.402  0.0000E+00  0.0000E+00
   -103.388  0.0000E+00  0.0000E+00
   -103.375  0.0000E+00  0.0000E+00
   -103.361  0.0000E+00  0.0000E+00
   -103.348  0.0000E+00  0.0000E+00
   -103.335  0.0000E+00  0.0000E+00
   -103.321  0.0000E+00  0.0000E+00
   -103.308  0.0000E+00  0.0000E+00
   -103.294  0.0000E+00  0.0000E+00
   -103.281  0.0000E+00  0.0000E+00
   -103.268  0.0000E+00  0.0000E+00
   -103.254  0.0000E+00  0.0000E+00
   -103.241  0.0000E+00  0.0000E+00
   -103.227  0.0000E+00  0.0000E+00
   -103.214  0.0000E+00  0.0000E+00
   -103.200  0.0000E+00  0.0000E+00
   -103.187  0.0000E+00  0.0000E+00
   -103.174  0.0000E+00  0.0000E+00
   -103.160  0.0000E+00  0.0000E+00
   -103.147  0.0000E+00  0.0000E+00
   -103.133  0.0000E+00  0.0000E+00
   -103.120  0.0000E+00  0.0000E+00
   -103.107  0.0000E+00  0.0000E+00
   -103.093  0.0000E+00  0.0000E+00
   -103.080  0.0000E+00  0.0000E+00
   -103.066  0.0000E+00  0.0000E+00
   -103.053  0.0000E+00  0.0000E+00
   -103.039  0.0000E+00  0.0000E+00
   -103.026  0.0000E+00  0.0000E+00
   -103.013  0.0000E+00  0.0000E+00
   -102.999  0.0000E+00  0.0000E+00
   -102.986  0.0000E+00  0.0000E+00
   -102.972  0.0000E+00  0.0000E+00
   -102.959  0.0000E+00  0.0000E+00
   -102.946  0.0000E+00  0.0000E+00
   -102.932  0.0000E+00  0.0000E+00
   -102.919  0.0000E+00  0.0000E+00
   -102.905  0.0000E+00  0.0000E+00
   -102.892  0.0000E+00  0.0000E+00
   -102.878  0.0000E+00  0.0000E+00
   -102.865  0.0000E+00  0.0000E+00
   -102.852  0.0000E+00  0.0000E+00
   -102.838  0.0000E+00  0.0000E+00
   -102.825  0.0000E+00  0.0000E+00
   -102.811  0.0000E+00  0.0000E+00
   -102.798  0.0000E+00  0.0000E+00
   -102.785  0.0000E+00  0.0000E+00
   -102.771  0.0000E+00  0.0000E+00
   -102.758  0.0000E+00  0.0000E+00
   -102.744  0.0000E+00  0.0000E+00
   -102.731  0.0000E+00  0.0000E+00
   -102.717  0.0000E+00  0.0000E+00
   -102.704  0.0000E+00  0.0000E+00
   -102.691  0.0000E+00  0.0000E+00
   -102.677  0.0000E+00  0.0000E+00
   -102.664  0.0000E+00  0.0000E+00
   -102.650  0.0000E+00  0.0000E+00
   -102.637  0.0000E+00  0.0000E+00
   -102.624  0.0000E+00  0.0000E+00
   -102.610  0.0000E+00  0.0000E+00
   -102.597  0.0000E+00  0.0000E+00
   -102.583  0.0000E+00  0.0000E+00
   -102.570  0.0000E+00  0.0000E+00
   -102.556  0.0000E+00  0.0000E+00
   -102.543  0.0000E+00  0.0000E+00
   -102.530  0.0000E+00  0.0000E+00
   -102.516  0.0000E+00  0.0000E+00
   -102.503  0.0000E+00  0.0000E+00
   -102.489  0.0000E+00  0.0000E+00
   -102.476  0.0000E+00  0.0000E+00
   -102.463  0.0000E+00  0.0000E+00
   -102.449  0.0000E+00  0.0000E+00
   -102.436  0.0000E+00  0.0000E+00
   -102.422  0.0000E+00  0.0000E+00
   -102.409  0.0000E+00  0.0000E+00
   -102.395  0.0000E+00  0.0000E+00
   -102.382  0.0000E+00  0.0000E+00
   -102.369  0.0000E+00  0.0000E+00
   -102.355  0.0000E+00  0.0000E+00
   -102.342  0.0000E+00  0.0000E+00
   -102.328  0.0000E+00  0.0000E+00
   -102.315  0.0000E+00  0.0000E+00
   -102.302  0.0000E+00  0.0000E+00
   -102.288  0.0000E+00  0.0000E+00
   -102.275  0.0000E+00  0.0000E+00
   -102.261  0.0000E+00  0.0000E+00
   -102.248  0.0000E+00  0.0000E+00
   -102.234  0.0000E+00  0.0000E+00
   -102.221  0.0000E+00  0.0000E+00
   -102.208  0.0000E+00  0.0000E+00
   -102.194  0.0000E+00  0.0000E+00
   -102.181  0.0000E+00  0.0000E+00
   -102.167  0.0000E+00  0.0000E+00
   -102.154  0.0000E+00  0.0000E+00
   -102.141  0.0000E+00  0.0000E+00
   -102.127  0.0000E+00  0.0000E+00
   -102.114  0.0000E+00  0.0000E+00
   -102.100  0.0000E+00  0.0000E+00
   -102.087  0.0000E+00  0.0000E+00
   -102.073  0.0000E+00  0.0000E+00
   -102.060  0.7787E-09  0.1045E-10
   -102.047  0.8917E-04  0.1196E-05
   -102.033  0.3398E+00  0.4561E-02
   -102.020  0.4918E+02  0.6644E+00
   -102.006  0.3591E+03  0.5483E+01
   -101.993  0.1820E+03  0.7925E+01
   -101.980  0.5582E+01  0.8000E+01
   -101.966  0.7297E-02  0.8000E+01
   -101.953  0.3350E-06  0.8000E+01
   -101.939  0.4854E-12  0.8000E+01
   -101.926  0.0000E+00  0.8000E+01
   -101.912  0.0000E+00  0.8000E+01
   -101.899  0.0000E+00  0.8000E+01
   -101.886  0.0000E+00  0.8000E+01
   -101.872  0.0000E+00  0.8000E+01
   -101.859  0.0000E+00  0.8000E+01
   -101.845  0.0000E+00  0.8000E+01
   -101.832  0.0000E+00  0.8000E+01
   -101.819  0.0000E+00  0.8000E+01
   -101.805  0.0000E+00  0.8000E+01
   -101.792  0.0000E+00  0.8000E+01
   -101.778  0.0000E+00  0.8000E+01
   -101.765  0.0000E+00  0.8000E+01
   -101.751  0.0000E+00  0.8000E+01
   -101.738  0.0000E+00  0.8000E+01
   -101.725  0.0000E+00  0.8000E+01
   -101.711  0.0000E+00  0.8000E+01
   -101.698  0.0000E+00  0.8000E+01
   -101.684  0.0000E+00  0.8000E+01
   -101.671  0.0000E+00  0.8000E+01
   -101.658  0.0000E+00  0.8000E+01
   -101.644  0.0000E+00  0.8000E+01
   -101.631  0.0000E+00  0.8000E+01
   -101.617  0.0000E+00  0.8000E+01
   -101.604  0.0000E+00  0.8000E+01
   -101.590  0.0000E+00  0.8000E+01
   -101.577  0.0000E+00  0.8000E+01
   -101.564  0.0000E+00  0.8000E+01
   -101.550  0.0000E+00  0.8000E+01
   -101.537  0.0000E+00  0.8000E+01
   -101.523  0.0000E+00  0.8000E+01
   -101.510  0.0000E+00  0.8000E+01
   -101.497  0.0000E+00  0.8000E+01
   -101.483  0.0000E+00  0.8000E+01
   -101.470  0.0000E+00  0.8000E+01
   -101.456  0.0000E+00  0.8000E+01
   -101.443  0.0000E+00  0.8000E+01
   -101.429  0.0000E+00  0.8000E+01
   -101.416  0.0000E+00  0.8000E+01
   -101.403  0.0000E+00  0.8000E+01
   -101.389  0.0000E+00  0.8000E+01
   -101.376  0.0000E+00  0.8000E+01
   -101.362  0.0000E+00  0.8000E+01
   -101.349  0.0000E+00  0.8000E+01
   -101.336  0.0000E+00  0.8000E+01
   -101.322  0.0000E+00  0.8000E+01
   -101.309  0.0000E+00  0.8000E+01
   -101.295  0.0000E+00  0.8000E+01
   -101.282  0.0000E+00  0.8000E+01
   -101.268  0.0000E+00  0.8000E+01
   -101.255  0.0000E+00  0.8000E+01
   -101.242  0.0000E+00  0.8000E+01
   -101.228  0.0000E+00  0.8000E+01
   -101.215  0.0000E+00  0.8000E+01
   -101.201  0.0000E+00  0.8000E+01
   -101.188  0.0000E+00  0.8000E+01
   -101.175  0.0000E+00  0.8000E+01
   -101.161  0.0000E+00  0.8000E+01
   -101.148  0.0000E+00  0.8000E+01
   -101.134  0.0000E+00  0.8000E+01
   -101.121  0.0000E+00  0.8000E+01
   -101.107  0.0000E+00  0.8000E+01
   -101.094  0.0000E+00  0.8000E+01
   -101.081  0.0000E+00  0.8000E+01
   -101.067  0.0000E+00  0.8000E+01
   -101.054  0.0000E+00  0.8000E+01
   -101.040  0.0000E+00  0.8000E+01
   -101.027  0.0000E+00  0.8000E+01
   -101.014  0.0000E+00  0.8000E+01
   -101.000  0.0000E+00  0.8000E+01
   -100.987  0.0000E+00  0.8000E+01
   -100.973  0.0000E+00  0.8000E+01
   -100.960  0.0000E+00  0.8000E+01
   -100.946  0.0000E+00  0.8000E+01
   -100.933  0.0000E+00  0.8000E+01
   -100.920  0.0000E+00  0.8000E+01
   -100.906  0.0000E+00  0.8000E+01
   -100.893  0.0000E+00  0.8000E+01
   -100.879  0.0000E+00  0.8000E+01
   -100.866  0.0000E+00  0.8000E+01
   -100.853  0.0000E+00  0.8000E+01
   -100.839  0.0000E+00  0.8000E+01
   -100.826  0.0000E+00  0.8000E+01
   -100.812  0.0000E+00  0.8000E+01
   -100.799  0.0000E+00  0.8000E+01
   -100.785  0.0000E+00  0.8000E+01
   -100.772  0.0000E+00  0.8000E+01
   -100.759  0.0000E+00  0.8000E+01
   -100.745  0.0000E+00  0.8000E+01
   -100.732  0.0000E+00  0.8000E+01
   -100.718  0.0000E+00  0.8000E+01
   -100.705  0.0000E+00  0.8000E+01
   -100.692  0.0000E+00  0.8000E+01
   -100.678  0.0000E+00  0.8000E+01
   -100.665  0.0000E+00  0.8000E+01
   -100.651  0.0000E+00  0.8000E+01
   -100.638  0.0000E+00  0.8000E+01
   -100.624  0.0000E+00  0.8000E+01
   -100.611  0.0000E+00  0.8000E+01
   -100.598  0.0000E+00  0.8000E+01
   -100.584  0.0000E+00  0.8000E+01
   -100.571  0.0000E+00  0.8000E+01
   -100.557  0.0000E+00  0.8000E+01
   -100.544  0.0000E+00  0.8000E+01
   -100.531  0.0000E+00  0.8000E+01
   -100.517  0.0000E+00  0.8000E+01
   -100.504  0.0000E+00  0.8000E+01
   -100.490  0.0000E+00  0.8000E+01
   -100.477  0.0000E+00  0.8000E+01
   -100.463  0.0000E+00  0.8000E+01
   -100.450  0.0000E+00  0.8000E+01
   -100.437  0.0000E+00  0.8000E+01
   -100.423  0.0000E+00  0.8000E+01
   -100.410  0.0000E+00  0.8000E+01
   -100.396  0.0000E+00  0.8000E+01
   -100.383  0.0000E+00  0.8000E+01
   -100.370  0.0000E+00  0.8000E+01
   -100.356  0.0000E+00  0.8000E+01
   -100.343  0.0000E+00  0.8000E+01
   -100.329  0.0000E+00  0.8000E+01
   -100.316  0.0000E+00  0.8000E+01
   -100.302  0.0000E+00  0.8000E+01
   -100.289  0.0000E+00  0.8000E+01
   -100.276  0.0000E+00  0.8000E+01
   -100.262  0.0000E+00  0.8000E+01
   -100.249  0.0000E+00  0.8000E+01
   -100.235  0.0000E+00  0.8000E+01
   -100.222  0.0000E+00  0.8000E+01
   -100.209  0.0000E+00  0.8000E+01
   -100.195  0.0000E+00  0.8000E+01
   -100.182  0.0000E+00  0.8000E+01
   -100.168  0.0000E+00  0.8000E+01
   -100.155  0.0000E+00  0.8000E+01
   -100.141  0.0000E+00  0.8000E+01
   -100.128  0.0000E+00  0.8000E+01
   -100.115  0.0000E+00  0.8000E+01
   -100.101  0.0000E+00  0.8000E+01
   -100.088  0.0000E+00  0.8000E+01
   -100.074  0.0000E+00  0.8000E+01
   -100.061  0.0000E+00  0.8000E+01
   -100.048  0.0000E+00  0.8000E+01
   -100.034  0.0000E+00  0.8000E+01
   -100.021  0.0000E+00  0.8000E+01
   -100.007  0.0000E+00  0.8000E+01
    -99.994  0.0000E+00  0.8000E+01
    -99.980  0.0000E+00  0.8000E+01
    -99.967  0.0000E+00  0.8000E+01
    -99.954  0.0000E+00  0.8000E+01
    -99.940  0.0000E+00  0.8000E+01
    -99.927  0.0000E+00  0.8000E+01
    -99.913  0.0000E+00  0.8000E+01
    -99.900  0.0000E+00  0.8000E+01
    -99.887  0.0000E+00  0.8000E+01
    -99.873  0.0000E+00  0.8000E+01
    -99.860  0.0000E+00  0.8000E+01
    -99.846  0.0000E+00  0.8000E+01
    -99.833  0.0000E+00  0.8000E+01
    -99.819  0.0000E+00  0.8000E+01
    -99.806  0.0000E+00  0.8000E+01
    -99.793  0.0000E+00  0.8000E+01
    -99.779  0.0000E+00  0.8000E+01
    -99.766  0.0000E+00  0.8000E+01
    -99.752  0.0000E+00  0.8000E+01
    -99.739  0.0000E+00  0.8000E+01
    -99.726  0.0000E+00  0.8000E+01
    -99.712  0.0000E+00  0.8000E+01
    -99.699  0.0000E+00  0.8000E+01
    -99.685  0.0000E+00  0.8000E+01
    -99.672  0.0000E+00  0.8000E+01
    -99.658  0.0000E+00  0.8000E+01
    -99.645  0.0000E+00  0.8000E+01
    -99.632  0.0000E+00  0.8000E+01
    -99.618  0.0000E+00  0.8000E+01
    -99.605  0.0000E+00  0.8000E+01
    -99.591  0.0000E+00  0.8000E+01
    -99.578  0.0000E+00  0.8000E+01
    -99.565  0.0000E+00  0.8000E+01
    -99.551  0.0000E+00  0.8000E+01
    -99.538  0.0000E+00  0.8000E+01
    -99.524  0.0000E+00  0.8000E+01
    -99.511  0.0000E+00  0.8000E+01
    -99.498  0.0000E+00  0.8000E+01
    -99.484  0.0000E+00  0.8000E+01
    -99.471  0.0000E+00  0.8000E+01
    -99.457  0.0000E+00  0.8000E+01
    -99.444  0.0000E+00  0.8000E+01
    -99.430  0.0000E+00  0.8000E+01
    -99.417  0.0000E+00  0.8000E+01
    -99.404  0.0000E+00  0.8000E+01
    -99.390  0.0000E+00  0.8000E+01
    -99.377  0.0000E+00  0.8000E+01
    -99.363  0.0000E+00  0.8000E+01
    -99.350  0.0000E+00  0.8000E+01
    -99.337  0.0000E+00  0.8000E+01
    -99.323  0.0000E+00  0.8000E+01
    -99.310  0.0000E+00  0.8000E+01
    -99.296  0.0000E+00  0.8000E+01
    -99.283  0.0000E+00  0.8000E+01
    -99.269  0.0000E+00  0.8000E+01
    -99.256  0.0000E+00  0.8000E+01
    -99.243  0.0000E+00  0.8000E+01
    -99.229  0.0000E+00  0.8000E+01
    -99.216  0.0000E+00  0.8000E+01
    -99.202  0.0000E+00  0.8000E+01
    -99.189  0.0000E+00  0.8000E+01
    -99.176  0.0000E+00  0.8000E+01
    -99.162  0.0000E+00  0.8000E+01
    -99.149  0.0000E+00  0.8000E+01
    -99.135  0.0000E+00  0.8000E+01
    -99.122  0.0000E+00  0.8000E+01
    -99.108  0.0000E+00  0.8000E+01
    -99.095  0.0000E+00  0.8000E+01
    -99.082  0.0000E+00  0.8000E+01
    -99.068  0.0000E+00  0.8000E+01
    -99.055  0.0000E+00  0.8000E+01
    -99.041  0.0000E+00  0.8000E+01
    -99.028  0.0000E+00  0.8000E+01
    -99.015  0.0000E+00  0.8000E+01
    -99.001  0.0000E+00  0.8000E+01
    -98.988  0.0000E+00  0.8000E+01
    -98.974  0.0000E+00  0.8000E+01
    -98.961  0.0000E+00  0.8000E+01
    -98.947  0.0000E+00  0.8000E+01
    -98.934  0.0000E+00  0.8000E+01
    -98.921  0.0000E+00  0.8000E+01
    -98.907  0.0000E+00  0.8000E+01
    -98.894  0.0000E+00  0.8000E+01
    -98.880  0.0000E+00  0.8000E+01
    -98.867  0.0000E+00  0.8000E+01
    -98.854  0.0000E+00  0.8000E+01
    -98.840  0.0000E+00  0.8000E+01
    -98.827  0.0000E+00  0.8000E+01
    -98.813  0.0000E+00  0.8000E+01
    -98.800  0.0000E+00  0.8000E+01
    -98.786  0.0000E+00  0.8000E+01
    -98.773  0.0000E+00  0.8000E+01
    -98.760  0.0000E+00  0.8000E+01
    -98.746  0.0000E+00  0.8000E+01
    -98.733  0.0000E+00  0.8000E+01
    -98.719  0.0000E+00  0.8000E+01
    -98.706  0.0000E+00  0.8000E+01
    -98.693  0.0000E+00  0.8000E+01
    -98.679  0.0000E+00  0.8000E+01
    -98.666  0.0000E+00  0.8000E+01
    -98.652  0.0000E+00  0.8000E+01
    -98.639  0.0000E+00  0.8000E+01
    -98.625  0.0000E+00  0.8000E+01
    -98.612  0.0000E+00  0.8000E+01
    -98.599  0.0000E+00  0.8000E+01
    -98.585  0.0000E+00  0.8000E+01
    -98.572  0.0000E+00  0.8000E+01
    -98.558  0.0000E+00  0.8000E+01
    -98.545  0.0000E+00  0.8000E+01
    -98.532  0.0000E+00  0.8000E+01
    -98.518  0.0000E+00  0.8000E+01
    -98.505  0.0000E+00  0.8000E+01
    -98.491  0.0000E+00  0.8000E+01
    -98.478  0.0000E+00  0.8000E+01
    -98.464  0.0000E+00  0.8000E+01
    -98.451  0.0000E+00  0.8000E+01
    -98.438  0.0000E+00  0.8000E+01
    -98.424  0.0000E+00  0.8000E+01
    -98.411  0.0000E+00  0.8000E+01
    -98.397  0.0000E+00  0.8000E+01
    -98.384  0.0000E+00  0.8000E+01
    -98.371  0.0000E+00  0.8000E+01
    -98.357  0.0000E+00  0.8000E+01
    -98.344  0.0000E+00  0.8000E+01
    -98.330  0.0000E+00  0.8000E+01
    -98.317  0.0000E+00  0.8000E+01
    -98.303  0.0000E+00  0.8000E+01
    -98.290  0.0000E+00  0.8000E+01
    -98.277  0.0000E+00  0.8000E+01
    -98.263  0.0000E+00  0.8000E+01
    -98.250  0.0000E+00  0.8000E+01
    -98.236  0.0000E+00  0.8000E+01
    -98.223  0.0000E+00  0.8000E+01
    -98.210  0.0000E+00  0.8000E+01
    -98.196  0.0000E+00  0.8000E+01
    -98.183  0.0000E+00  0.8000E+01
    -98.169  0.0000E+00  0.8000E+01
    -98.156  0.0000E+00  0.8000E+01
    -98.142  0.0000E+00  0.8000E+01
    -98.129  0.0000E+00  0.8000E+01
    -98.116  0.0000E+00  0.8000E+01
    -98.102  0.0000E+00  0.8000E+01
    -98.089  0.0000E+00  0.8000E+01
    -98.075  0.0000E+00  0.8000E+01
    -98.062  0.0000E+00  0.8000E+01
    -98.049  0.0000E+00  0.8000E+01
    -98.035  0.0000E+00  0.8000E+01
    -98.022  0.0000E+00  0.8000E+01
    -98.008  0.0000E+00  0.8000E+01
    -97.995  0.0000E+00  0.8000E+01
    -97.981  0.0000E+00  0.8000E+01
    -97.968  0.0000E+00  0.8000E+01
    -97.955  0.0000E+00  0.8000E+01
    -97.941  0.0000E+00  0.8000E+01
    -97.928  0.0000E+00  0.8000E+01
    -97.914  0.0000E+00  0.8000E+01
    -97.901  0.0000E+00  0.8000E+01
    -97.888  0.0000E+00  0.8000E+01
    -97.874  0.0000E+00  0.8000E+01
    -97.861  0.0000E+00  0.8000E+01
    -97.847  0.0000E+00  0.8000E+01
    -97.834  0.0000E+00  0.8000E+01
    -97.820  0.0000E+00  0.8000E+01
    -97.807  0.0000E+00  0.8000E+01
    -97.794  0.0000E+00  0.8000E+01
    -97.780  0.0000E+00  0.8000E+01
    -97.767  0.0000E+00  0.8000E+01
    -97.753  0.0000E+00  0.8000E+01
    -97.740  0.0000E+00  0.8000E+01
    -97.727  0.0000E+00  0.8000E+01
    -97.713  0.0000E+00  0.8000E+01
    -97.700  0.0000E+00  0.8000E+01
    -97.686  0.0000E+00  0.8000E+01
    -97.673  0.0000E+00  0.8000E+01
    -97.659  0.0000E+00  0.8000E+01
    -97.646  0.0000E+00  0.8000E+01
    -97.633  0.0000E+00  0.8000E+01
    -97.619  0.0000E+00  0.8000E+01
    -97.606  0.0000E+00  0.8000E+01
    -97.592  0.0000E+00  0.8000E+01
    -97.579  0.0000E+00  0.8000E+01
    -97.566  0.0000E+00  0.8000E+01
    -97.552  0.0000E+00  0.8000E+01
    -97.539  0.0000E+00  0.8000E+01
    -97.525  0.0000E+00  0.8000E+01
    -97.512  0.0000E+00  0.8000E+01
    -97.498  0.0000E+00  0.8000E+01
    -97.485  0.0000E+00  0.8000E+01
    -97.472  0.0000E+00  0.8000E+01
    -97.458  0.0000E+00  0.8000E+01
    -97.445  0.0000E+00  0.8000E+01
    -97.431  0.0000E+00  0.8000E+01
    -97.418  0.0000E+00  0.8000E+01
    -97.405  0.0000E+00  0.8000E+01
    -97.391  0.0000E+00  0.8000E+01
    -97.378  0.0000E+00  0.8000E+01
    -97.364  0.0000E+00  0.8000E+01
    -97.351  0.0000E+00  0.8000E+01
    -97.337  0.0000E+00  0.8000E+01
    -97.324  0.0000E+00  0.8000E+01
    -97.311  0.0000E+00  0.8000E+01
    -97.297  0.0000E+00  0.8000E+01
    -97.284  0.0000E+00  0.8000E+01
    -97.270  0.0000E+00  0.8000E+01
    -97.257  0.0000E+00  0.8000E+01
    -97.244  0.0000E+00  0.8000E+01
    -97.230  0.0000E+00  0.8000E+01
    -97.217  0.0000E+00  0.8000E+01
    -97.203  0.0000E+00  0.8000E+01
    -97.190  0.0000E+00  0.8000E+01
    -97.176  0.0000E+00  0.8000E+01
    -97.163  0.0000E+00  0.8000E+01
    -97.150  0.0000E+00  0.8000E+01
    -97.136  0.0000E+00  0.8000E+01
    -97.123  0.0000E+00  0.8000E+01
    -97.109  0.0000E+00  0.8000E+01
    -97.096  0.0000E+00  0.8000E+01
    -97.083  0.0000E+00  0.8000E+01
    -97.069  0.0000E+00  0.8000E+01
    -97.056  0.0000E+00  0.8000E+01
    -97.042  0.0000E+00  0.8000E+01