    8    8    1    1
  0.1624377E+02  0.3644469E-09  0.3644469E-09  0.9783819E-09  0.5000000E-15
   1.0000000000000000E-004
  CAR 
 Be4P3Rb                                 
     40    282     48
 
  0.0000000E+00  0.0000000E+00  0.0000000E+00  0.6802721E-02
      1       -102.012486   1.000000
      2       -102.012190   1.000000
      3       -102.007575   1.000000
      4       -102.007150   1.000000
      5        -25.701116   1.000000
      6        -10.629788   1.000000
      7         -9.435259   1.000000
      8         -8.255330   1.000000
      9         -8.255330   1.000000
     10         -7.922104   1.000000
     11         -7.634277   1.000000
     12         -1.745388   1.000000
     13         -0.406055   1.000000
     14         -0.406055   1.000000
     15          0.661797   1.000000
     16          1.266516   1.000000
     17          1.266516   1.000000
     18          3.174360   1.000000
     19          3.624331   1.000000
     20          3.624331   1.000000
     21          5.211226   0.000000
     22          5.236404   0.000000
     23          7.171036   0.000000
     24          7.564313   0.000000
     25          8.077135   0.000000
     26          8.207009   0.000000
     27          8.650179   0.000000
     28          8.650179   0.000000
     29          9.414743   0.000000
     30          9.769815   0.000000
     31         11.954357   0.000000
     32         11.954357   0.000000
     33         12.346649   0.000000
     34         12.346649   0.000000
     35         13.770323   0.000000
     36         13.787599   0.000000
     37         13.918783   0.000000
     38         14.187389   0.000000
     39         14.527260   0.000000
     40         14.527260   0.000000
     41         15.040422   0.000000
     42         15.262031   0.000000
     43         15.948623   0.000000
     44         15.948623   0.000000
     45         16.219387   0.000000
     46         18.023483   0.000000
     47         18.306142   0.000000
     48         18.390234   0.000000
 
  0.1428571E+00  0.0000000E+00  0.0000000E+00  0.2721088E-01
      1       -102.012224   1.000000
      2       -102.011918   1.000000
      3       -102.007845   1.000000
      4       -102.007366   1.000000
      5        -25.685163   1.000000
      6        -10.458219   1.000000
      7         -9.305129   1.000000
      8         -8.512385   1.000000
      9         -8.237225   1.000000
     10         -7.888952   1.000000
     11         -7.503253   1.000000
     12         -1.881951   1.000000
     13         -1.468137   1.000000
     14         -0.213393   1.000000
     15          0.541452   1.000000
     16          1.032880   1.000000
     17          1.436880   1.000000
     18          2.339197   1.000000
     19          3.198613   1.000000
     20          3.528205   1.000000
     21          5.488114   0.000000
     22          6.578512   0.000000
     23          7.735170   0.000000
     24          7.745077   0.000000
     25          8.278835   0.000000
     26          8.498061   0.000000
     27          8.573354   0.000000
     28          9.269264   0.000000
     29          9.905503   0.000000
     30         10.240891   0.000000
     31         11.048436   0.000000
     32         11.226551   0.000000
     33         11.620636   0.000000
     34         11.882824   0.000000
     35         12.728133   0.000000
     36         13.422848   0.000000
     37         13.820503   0.000000
     38         14.098103   0.000000
     39         14.782356   0.000000
     40         15.087518   0.000000
     41         15.425346   0.000000
     42         15.723298   0.000000
     43         16.111904   0.000000
     44         16.381911   0.000000
     45         16.939698   0.000000
     46         17.117234   0.000000
     47         17.433924   0.000000
     48         17.561361   0.000000
 
  0.2857143E+00  0.0000000E+00  0.0000000E+00  0.2721088E-01
      1       -102.011602   1.000000
      2       -102.011216   1.000000
      3       -102.008580   1.000000
      4       -102.008072   1.000000
      5        -25.648986   1.000000
      6         -9.979376   1.000000
      7         -8.970429   1.000000
      8         -8.964958   1.000000
      9         -8.196150   1.000000
     10         -7.813353   1.000000
     11         -7.415179   1.000000
     12         -2.768224   1.000000
     13         -2.579594   1.000000
     14          0.111294   1.000000
     15          0.183082   1.000000
     16          0.339580   1.000000
     17          1.805274   1.000000
     18          1.887743   1.000000
     19          2.536149   1.000000
     20          3.135403   1.000000
     21          5.946581   0.000000
     22          7.730632   0.000000
     23          7.974225   0.000000
     24          8.089798   0.000000
     25          8.289253   0.000000
     26          8.651497   0.000000
     27          9.353728   0.000000
     28          9.830826   0.000000
     29         10.401581   0.000000
     30         10.801954   0.000000
     31         10.823383   0.000000
     32         11.113119   0.000000
     33         11.603345   0.000000
     34         11.727207   0.000000
     35         12.058932   0.000000
     36         13.258972   0.000000
     37         13.614365   0.000000
     38         13.872535   0.000000
     39         14.409703   0.000000
     40         14.437026   0.000000
     41         15.022424   0.000000
     42         15.409509   0.000000
     43         15.783297   0.000000
     44         16.691230   0.000000
     45         17.268392   0.000000
     46         17.320878   0.000000
     47         18.072730   0.000000
     48         18.690378   0.000000
 
  0.4285714E+00  0.0000000E+00  0.0000000E+00  0.2721088E-01
      1       -102.010647   1.000000
      2       -102.010168   1.000000
      3       -102.009572   1.000000
      4       -102.009045   1.000000
      5        -25.619619   1.000000
      6         -9.434755   1.000000
      7         -9.220928   1.000000
      8         -8.638956   1.000000
      9         -8.162803   1.000000
     10         -7.752549   1.000000
     11         -7.681154   1.000000
     12         -3.367106   1.000000
     13         -3.176063   1.000000
     14         -1.224734   1.000000
     15          0.485062   1.000000
     16          1.124127   1.000000
     17          1.617289   1.000000
     18          2.225318   1.000000
     19          2.361517   1.000000
     20          2.406003   1.000000
     21          6.424254   0.000000
     22          7.121596   0.000000
     23          7.394982   0.000000
     24          8.037082   0.000000
     25          8.275027   0.000000
     26          8.622979   0.000000
     27          9.300552   0.000000
     28         10.408160   0.000000
     29         10.936436   0.000000
     30         11.051495   0.000000
     31         11.281074   0.000000
     32         11.561032   0.000000
     33         11.627591   0.000000
     34         12.265233   0.000000
     35         12.496687   0.000000
     36         12.795825   0.000000
     37         13.164776   0.000000
     38         13.772610   0.000000
     39         14.198515   0.000000
     40         15.366001   0.000000
     41         15.745014   0.000000
     42         15.896528   0.000000
     43         17.045167   0.000000
     44         17.500840   0.000000
     45         17.596955   0.000000
     46         17.744356   0.000000
     47         17.942993   0.000000
     48         18.262369   0.000000
 
  0.1428571E+00  0.1428571E+00  0.0000000E+00  0.2721088E-01
      1       -102.012044   1.000000
      2       -102.011697   1.000000
      3       -102.008080   1.000000
      4       -102.007583   1.000000
      5        -25.669391   1.000000
      6        -10.288165   1.000000
      7         -9.183475   1.000000
      8         -8.537185   1.000000
      9         -8.412605   1.000000
     10         -7.848939   1.000000
     11         -7.404969   1.000000
     12         -1.945119   1.000000
     13         -1.362458   1.000000
     14         -1.159630   1.000000
     15          0.636418   1.000000
     16          0.662323   1.000000
     17          1.276495   1.000000
     18          2.339427   1.000000
     19          2.350158   1.000000
     20          3.300453   1.000000
     21          6.851872   0.000000
     22          6.876319   0.000000
     23          7.576570   0.000000
     24          8.179928   0.000000
     25          8.474115   0.000000
     26          8.489655   0.000000
     27          9.332252   0.000000
     28          9.385098   0.000000
     29          9.888361   0.000000
     30         10.272545   0.000000
     31         10.285839   0.000000
     32         11.349077   0.000000
     33         11.717738   0.000000
     34         12.079505   0.000000
     35         12.346796   0.000000
     36         13.068121   0.000000
     37         13.567118   0.000000
     38         14.089684   0.000000
     39         14.266776   0.000000
     40         14.594693   0.000000
     41         15.165380   0.000000
     42         15.403605   0.000000
     43         16.058399   0.000000
     44         17.242157   0.000000
     45         17.407731   0.000000
     46         18.106060   0.000000
     47         18.490300   0.000000
     48         18.678114   0.000000
 
  0.2857143E+00  0.1428571E+00  0.0000000E+00  0.5442177E-01
      1       -102.011462   1.000000
      2       -102.011039   1.000000
      3       -102.008732   1.000000
      4       -102.008200   1.000000
      5        -25.633607   1.000000
      6         -9.815506   1.000000
      7         -8.920005   1.000000
      8         -8.878838   1.000000
      9         -8.394009   1.000000
     10         -7.746571   1.000000
     11         -7.338313   1.000000
     12         -2.589962   1.000000
     13         -2.474188   1.000000
     14         -0.715716   1.000000
     15          0.115943   1.000000
     16          0.246365   1.000000
     17          0.923412   1.000000
     18          1.898684   1.000000
     19          2.096165   1.000000
     20          2.704466   1.000000
     21          7.311795   0.000000
     22          7.315807   0.000000
     23          7.762716   0.000000
     24          8.033185   0.000000
     25          8.665164   0.000000
     26          9.199538   0.000000
     27          9.513948   0.000000
     28          9.734210   0.000000
     29         10.182079   0.000000
     30         10.782882   0.000000
     31         11.011578   0.000000
     32         11.357226   0.000000
     33         11.761788   0.000000
     34         12.191058   0.000000
     35         12.253145   0.000000
     36         12.616519   0.000000
     37         13.360478   0.000000
     38         13.868954   0.000000
     39         14.007549   0.000000
     40         14.335022   0.000000
     41         15.239363   0.000000
     42         15.757502   0.000000
     43         16.540767   0.000000
     44         17.423061   0.000000
     45         17.695743   0.000000
     46         18.538872   0.000000
     47         18.621076   0.000000
     48         18.851622   0.000000
 
  0.4285714E+00  0.1428571E+00  0.0000000E+00  0.5442177E-01
      1       -102.010610   1.000000
      2       -102.010106   1.000000
      3       -102.009643   1.000000
      4       -102.009091   1.000000
      5        -25.604571   1.000000
      6         -9.334192   1.000000
      7         -9.109192   1.000000
      8         -8.596346   1.000000
      9         -8.344160   1.000000
     10         -7.638430   1.000000
     11         -7.587591   1.000000
     12         -3.201303   1.000000
     13         -3.064939   1.000000
     14         -1.150261   1.000000
     15          0.101530   1.000000
     16          0.540849   1.000000
     17          1.137142   1.000000
     18          1.380644   1.000000
     19          1.766096   1.000000
     20          2.235050   1.000000
     21          6.738800   0.000000
     22          7.685018   0.000000
     23          7.975899   0.000000
     24          8.115184   0.000000
     25          8.298327   0.000000
     26          9.211630   0.000000
     27          9.311367   0.000000
     28          9.468806   0.000000
     29         10.485539   0.000000
     30         10.501769   0.000000
     31         10.853521   0.000000
     32         11.092204   0.000000
     33         12.558676   0.000000
     34         12.937824   0.000000
     35         13.642533   0.000000
     36         13.776252   0.000000
     37         13.970366   0.000000
     38         14.203576   0.000000
     39         14.571242   0.000000
     40         14.755368   0.000000
     41         15.660312   0.000000
     42         16.250733   0.000000
     43         16.649200   0.000000
     44         17.174360   0.000000
     45         17.611597   0.000000
     46         17.705703   0.000000
     47         18.089817   0.000000
     48         18.667958   0.000000
 
  0.2857143E+00  0.2857143E+00  0.0000000E+00  0.2721088E-01
      1       -102.011083   1.000000
      2       -102.010565   1.000000
      3       -102.009187   1.000000
      4       -102.008606   1.000000
      5        -25.598737   1.000000
      6         -9.369758   1.000000
      7         -8.853244   1.000000
      8         -8.747714   1.000000
      9         -8.669469   1.000000
     10         -7.557112   1.000000
     11         -7.242127   1.000000
     12         -2.382391   1.000000
     13         -2.316330   1.000000
     14         -1.953535   1.000000
     15         -0.399142   1.000000
     16         -0.082248   1.000000
     17          0.510730   1.000000
     18          0.916045   1.000000
     19          1.665552   1.000000
     20          2.130626   1.000000
     21          6.972784   0.000000
     22          7.056351   0.000000
     23          7.059161   0.000000
     24          7.960592   0.000000
     25          9.426629   0.000000
     26          9.717813   0.000000
     27         10.175792   0.000000
     28         10.459126   0.000000
     29         11.103208   0.000000
     30         11.275056   0.000000
     31         11.428163   0.000000
     32         11.440995   0.000000
     33         11.815653   0.000000
     34         11.818902   0.000000
     35         12.228003   0.000000
     36         12.764880   0.000000
     37         13.519056   0.000000
     38         14.122977   0.000000
     39         14.817072   0.000000
     40         15.178803   0.000000
     41         16.125622   0.000000
     42         16.431613   0.000000
     43         16.953960   0.000000
     44         16.994832   0.000000
     45         17.576170   0.000000
     46         19.005402   0.000000
     47         19.258211   0.000000
     48         19.316434   0.000000
 
  0.4285714E+00  0.2857143E+00  0.0000000E+00  0.5442177E-01
      1       -102.010498   1.000000
      2       -102.009900   1.000000
      3       -102.009839   1.000000
      4       -102.009203   1.000000
      5        -25.570450   1.000000
      6         -9.148066   1.000000
      7         -8.773616   1.000000
      8         -8.703569   1.000000
      9         -8.503517   1.000000
     10         -7.360784   1.000000
     11         -7.340016   1.000000
     12         -2.883931   1.000000
     13         -2.729448   1.000000
     14         -1.840571   1.000000
     15         -0.556370   1.000000
     16         -0.239071   1.000000
     17          0.287373   1.000000
     18          0.456187   1.000000
     19          1.280849   1.000000
     20          1.543536   1.000000
     21          6.462925   0.000000
     22          6.536027   0.000000
     23          7.358139   0.000000
     24          7.365699   0.000000
     25          9.225557   0.000000
     26          9.569352   0.000000
     27          9.868259   0.000000
     28         10.037584   0.000000
     29         10.882762   0.000000
     30         11.744479   0.000000
     31         11.865622   0.000000
     32         12.058247   0.000000
     33         12.349229   0.000000
     34         12.378851   0.000000
     35         14.238164   0.000000
     36         14.548424   0.000000
     37         14.736763   0.000000
     38         15.030672   0.000000
     39         15.458934   0.000000
     40         15.664043   0.000000
     41         16.052597   0.000000
     42         16.728957   0.000000
     43         16.905769   0.000000
     44         17.146254   0.000000
     45         17.657475   0.000000
     46         18.146609   0.000000
     47         18.604849   0.000000
     48         18.802116   0.000000
 
  0.4285714E+00  0.4285714E+00  0.0000000E+00  0.2721088E-01
      1       -102.010298   1.000000
      2       -102.010060   1.000000
      3       -102.009638   1.000000
      4       -102.009366   1.000000
      5        -25.542776   1.000000
      6         -9.029075   1.000000
      7         -9.000297   1.000000
      8         -8.431314   1.000000
      9         -8.333619   1.000000
     10         -7.173822   1.000000
     11         -7.042758   1.000000
     12         -2.997813   1.000000
     13         -2.788604   1.000000
     14         -2.148756   1.000000
     15         -1.034193   1.000000
     16         -0.465469   1.000000
     17         -0.385443   1.000000
     18          0.142027   1.000000
     19          0.707947   1.000000
     20          1.434092   1.000000
     21          5.368027   0.000000
     22          6.540018   0.000000
     23          6.606760   0.000000
     24          6.663004   0.000000
     25          8.944798   0.000000
     26          9.893331   0.000000
     27         10.543994   0.000000
     28         10.682517   0.000000
     29         10.703417   0.000000
     30         11.077237   0.000000
     31         12.157915   0.000000
     32         13.369731   0.000000
     33         13.381393   0.000000
     34         14.017332   0.000000
     35         14.332981   0.000000
     36         15.157188   0.000000
     37         15.535585   0.000000
     38         16.151404   0.000000
     39         16.419965   0.000000
     40         16.634364   0.000000
     41         16.899026   0.000000
     42         17.115138   0.000000
     43         17.384707   0.000000
     44         17.691709   0.000000
     45         18.144501   0.000000
     46         18.147792   0.000000
     47         18.641575   0.000000
     48         19.824770   0.000000
 
  0.0000000E+00  0.0000000E+00  0.3333333E+00  0.1360544E-01
      1       -102.012445   1.000000
      2       -102.012189   1.000000
      3       -102.007607   1.000000
      4       -102.007140   1.000000
      5        -25.701116   1.000000
      6        -10.662542   1.000000
      7         -9.184989   1.000000
      8         -8.523621   1.000000
      9         -8.255316   1.000000
     10         -8.255315   1.000000
     11         -7.205729   1.000000
     12         -1.971513   1.000000
     13         -0.413715   1.000000
     14         -0.413715   1.000000
     15          1.262531   1.000000
     16          1.294746   1.000000
     17          1.294746   1.000000
     18          2.584417   1.000000
     19          3.581833   1.000000
     20          3.581833   1.000000
     21          5.211989   0.000000
     22          5.482349   0.000000
     23          7.099687   0.000000
     24          7.125376   0.000000
     25          7.631726   0.000000
     26          8.777062   0.000000
     27          8.777062   0.000000
     28          9.100289   0.000000
     29          9.723833   0.000000
     30          9.976766   0.000000
     31         11.296972   0.000000
     32         11.296972   0.000000
     33         12.513668   0.000000
     34         13.205518   0.000000
     35         13.205518   0.000000
     36         14.010565   0.000000
     37         14.096678   0.000000
     38         14.314613   0.000000
     39         14.558243   0.000000
     40         14.558243   0.000000
     41         14.737884   0.000000
     42         15.328634   0.000000
     43         15.328634   0.000000
     44         15.880930   0.000000
     45         16.593122   0.000000
     46         17.512468   0.000000
     47         17.796990   0.000000
     48         18.449086   0.000000
 
  0.1428571E+00  0.0000000E+00  0.3333333E+00  0.5442177E-01
      1       -102.012237   1.000000
      2       -102.011921   1.000000
      3       -102.007851   1.000000
      4       -102.007379   1.000000
      5        -25.685166   1.000000
      6        -10.487781   1.000000
      7         -9.085832   1.000000
      8         -8.629861   1.000000
      9         -8.237218   1.000000
     10         -8.228258   1.000000
     11         -7.212477   1.000000
     12         -1.986690   1.000000
     13         -1.402263   1.000000
     14         -0.219804   1.000000
     15          0.307048   1.000000
     16          1.428315   1.000000
     17          1.459872   1.000000
     18          2.442453   1.000000
     19          2.926054   1.000000
     20          3.500428   1.000000
     21          5.613586   0.000000
     22          6.672911   0.000000
     23          7.114077   0.000000
     24          7.918292   0.000000
     25          8.015503   0.000000
     26          8.366271   0.000000
     27          8.606060   0.000000
     28          9.793257   0.000000
     29         10.189595   0.000000
     30         10.518609   0.000000
     31         10.719836   0.000000
     32         11.115970   0.000000
     33         12.197984   0.000000
     34         12.482707   0.000000
     35         12.981332   0.000000
     36         13.048621   0.000000
     37         13.355385   0.000000
     38         14.046723   0.000000
     39         14.275026   0.000000
     40         14.448352   0.000000
     41         14.466135   0.000000
     42         15.507654   0.000000
     43         16.362096   0.000000
     44         16.842169   0.000000
     45         17.207857   0.000000
     46         17.471982   0.000000
     47         17.786660   0.000000
     48         18.253391   0.000000
 
  0.2857143E+00  0.0000000E+00  0.3333333E+00  0.5442177E-01
      1       -102.011602   1.000000
      2       -102.011209   1.000000
      3       -102.008564   1.000000
      4       -102.008062   1.000000
      5        -25.648985   1.000000
      6         -9.993744   1.000000
      7         -9.057338   1.000000
      8         -8.788762   1.000000
      9         -8.196149   1.000000
     10         -7.955292   1.000000
     11         -7.360362   1.000000
     12         -2.697645   1.000000
     13         -2.559995   1.000000
     14         -0.183156   1.000000
     15          0.195381   1.000000
     16          0.336635   1.000000
     17          1.894418   1.000000
     18          2.132215   1.000000
     19          2.532212   1.000000
     20          3.136018   1.000000
     21          6.027518   0.000000
     22          6.978797   0.000000
     23          7.932769   0.000000
     24          8.069085   0.000000
     25          8.143924   0.000000
     26          9.274060   0.000000
     27          9.790752   0.000000
     28          9.791073   0.000000
     29         10.118092   0.000000
     30         10.493017   0.000000
     31         11.047241   0.000000
     32         11.102422   0.000000
     33         11.995977   0.000000
     34         12.243845   0.000000
     35         12.449333   0.000000
     36         12.687712   0.000000
     37         13.151860   0.000000
     38         13.768104   0.000000
     39         14.090969   0.000000
     40         14.252317   0.000000
     41         14.662712   0.000000
     42         15.968923   0.000000
     43         16.397632   0.000000
     44         16.565522   0.000000
     45         16.863027   0.000000
     46         17.438201   0.000000
     47         17.867089   0.000000
     48         18.926374   0.000000
 
  0.4285714E+00  0.0000000E+00  0.3333333E+00  0.5442177E-01
      1       -102.010652   1.000000
      2       -102.010172   1.000000
      3       -102.009566   1.000000
      4       -102.009054   1.000000
      5        -25.619620   1.000000
      6         -9.392252   1.000000
      7         -9.288917   1.000000
      8         -8.600517   1.000000
      9         -8.162797   1.000000
     10         -7.830131   1.000000
     11         -7.607088   1.000000
     12         -3.433014   1.000000
     13         -3.183395   1.000000
     14         -1.076920   1.000000
     15          0.434050   1.000000
     16          1.124441   1.000000
     17          1.557960   1.000000
     18          2.236568   1.000000
     19          2.344367   1.000000
     20          2.421758   1.000000
     21          6.441623   0.000000
     22          7.134963   0.000000
     23          7.431848   0.000000
     24          8.294476   0.000000
     25          8.386030   0.000000
     26          8.442880   0.000000
     27          9.506775   0.000000
     28          9.664733   0.000000
     29         10.663592   0.000000
     30         10.699204   0.000000
     31         11.001282   0.000000
     32         11.196480   0.000000
     33         12.122256   0.000000
     34         12.436594   0.000000
     35         13.291867   0.000000
     36         13.367206   0.000000
     37         13.759691   0.000000
     38         14.068563   0.000000
     39         14.537023   0.000000
     40         14.929321   0.000000
     41         15.547604   0.000000
     42         15.997075   0.000000
     43         16.287948   0.000000
     44         17.022891   0.000000
     45         17.194054   0.000000
     46         17.296363   0.000000
     47         17.840502   0.000000
     48         18.203530   0.000000
 
  0.1428571E+00  0.1428571E+00  0.3333333E+00  0.5442177E-01
      1       -102.012038   1.000000
      2       -102.011703   1.000000
      3       -102.008087   1.000000
      4       -102.007593   1.000000
      5        -25.669391   1.000000
      6        -10.314844   1.000000
      7         -8.993732   1.000000
      8         -8.640906   1.000000
      9         -8.412585   1.000000
     10         -8.095635   1.000000
     11         -7.206529   1.000000
     12         -1.995219   1.000000
     13         -1.270221   1.000000
     14         -1.167903   1.000000
     15          0.362076   1.000000
     16          0.675368   1.000000
     17          1.519687   1.000000
     18          2.301737   1.000000
     19          2.567797   1.000000
     20          3.094601   1.000000
     21          6.885216   0.000000
     22          7.031884   0.000000
     23          7.491755   0.000000
     24          7.560243   0.000000
     25          8.484430   0.000000
     26          8.815604   0.000000
     27          9.341931   0.000000
     28          9.456411   0.000000
     29         10.231514   0.000000
     30         10.277024   0.000000
     31         10.434867   0.000000
     32         11.125383   0.000000
     33         11.329389   0.000000
     34         12.092184   0.000000
     35         12.564273   0.000000
     36         13.079228   0.000000
     37         13.482143   0.000000
     38         14.300728   0.000000
     39         14.659482   0.000000
     40         15.047298   0.000000
     41         15.236459   0.000000
     42         15.383916   0.000000
     43         15.407716   0.000000
     44         15.900614   0.000000
     45         17.445613   0.000000
     46         17.982551   0.000000
     47         18.537837   0.000000
     48         18.898517   0.000000
 
  0.2857143E+00  0.1428571E+00  0.3333333E+00  0.1088435E+00
      1       -102.011470   1.000000
      2       -102.011040   1.000000
      3       -102.008738   1.000000
      4       -102.008209   1.000000
      5        -25.633609   1.000000
      6         -9.827861   1.000000
      7         -8.996903   1.000000
      8         -8.727652   1.000000
      9         -8.404246   1.000000
     10         -7.837162   1.000000
     11         -7.309272   1.000000
     12         -2.538781   1.000000
     13         -2.466680   1.000000
     14         -0.715726   1.000000
     15         -0.078682   1.000000
     16          0.291420   1.000000
     17          0.924716   1.000000
     18          2.068707   1.000000
     19          2.158748   1.000000
     20          2.604096   1.000000
     21          7.132121   0.000000
     22          7.344037   0.000000
     23          7.465024   0.000000
     24          8.564217   0.000000
     25          8.887419   0.000000
     26          9.189822   0.000000
     27          9.562393   0.000000
     28          9.814660   0.000000
     29          9.921959   0.000000
     30         10.390320   0.000000
     31         10.733565   0.000000
     32         11.137993   0.000000
     33         11.645606   0.000000
     34         12.237540   0.000000
     35         12.604392   0.000000
     36         12.914310   0.000000
     37         13.759259   0.000000
     38         14.158706   0.000000
     39         14.371872   0.000000
     40         14.622755   0.000000
     41         15.005158   0.000000
     42         15.299397   0.000000
     43         16.273845   0.000000
     44         16.924081   0.000000
     45         17.203228   0.000000
     46         18.077207   0.000000
     47         18.520930   0.000000
     48         19.085342   0.000000
 
  0.4285714E+00  0.1428571E+00  0.3333333E+00  0.1088435E+00
      1       -102.010607   1.000000
      2       -102.010105   1.000000
      3       -102.009639   1.000000
      4       -102.009086   1.000000
      5        -25.604570   1.000000
      6         -9.301574   1.000000
      7         -9.166538   1.000000
      8         -8.560900   1.000000