       N       E                     dE             d eps       ncg     rms          rms(c)
DAV:   1    -0.868624232689E+03   -0.86862E+03   -0.19186E+04 27216   0.123E+03
DAV:   2    -0.108286486131E+04   -0.21424E+03   -0.20373E+03 27432   0.230E+02
DAV:   3    -0.109821941803E+04   -0.15355E+02   -0.15298E+02 49944   0.498E+01
DAV:   4    -0.109859888394E+04   -0.37947E+00   -0.37945E+00 30912   0.668E+00
DAV:   5    -0.404402458710E+02    0.10582E+04   -0.54906E+00 40824   0.908E+00    0.103E+01
DAV:   6    -0.393183636791E+02    0.11219E+01   -0.11637E+00 36720   0.393E+00    0.707E+00
DAV:   7    -0.391768430414E+02    0.14152E+00   -0.52671E-01 37872   0.233E+00    0.478E+00
DAV:   8    -0.391442226680E+02    0.32620E-01   -0.67528E-02 38040   0.100E+00    0.316E+00
DAV:   9    -0.391291660005E+02    0.15057E-01   -0.14096E-02 38112   0.458E-01    0.190E+00
DAV:  10    -0.391240698624E+02    0.50961E-02   -0.44861E-03 41472   0.236E-01    0.106E+00
DAV:  11    -0.391223342224E+02    0.17356E-02   -0.10245E-03 41400   0.122E-01    0.589E-01
DAV:  12    -0.391217639484E+02    0.57027E-03   -0.36090E-04 40320   0.747E-02    0.324E-01
DAV:  13    -0.391215889320E+02    0.17502E-03   -0.13348E-04 39312   0.462E-02    0.182E-01
DAV:  14    -0.391215374588E+02    0.51473E-04   -0.50965E-05 38928   0.286E-02    0.105E-01
DAV:  15    -0.391215237957E+02    0.13663E-04   -0.20621E-05 38808   0.181E-02    0.635E-02
DAV:  16    -0.391215212498E+02    0.25459E-05   -0.85965E-06 38928   0.117E-02
   1 F= -.39121521E+02 E0= -.39121521E+02  d E =-.238538E-15
