 vasp.6.3.2 27Jun22 (build Jan 18 2024 14:18:24) complex                         
 executed on    LinuxNV_CrayMPICH date 2024.05.20  23:06:48
 running on   24 total cores
 distrk:  each k-point on   24 cores,    1 groups
 distr:  one band on NCORE=   1 cores,   24 groups


--------------------------------------------------------------------------------------------------------


 INCAR:
   SYSTEM = Be4P3Rb
   ENCUT = 400
   PREC = Accurate
   ISTART = 1
   ICHARG = 0
   LCHARG = .TRUE.
   LWAVE = .TRUE.
   NEDOS = 10001
   LHFCALC = .TRUE.
   HFSCREEN = 0.2
   AEXX = 0.25
   ALGO = Normal
   GGA = PE
   ISIF = 3
   NSW = 0
   IBRION = 2
   EDIFFG = -1.0E-2
   NELM = 90
   EDIFF = 1E-5
   ISMEAR = 0
   SIGMA = 0.01
   LREAL = .FALSE.

 POTCAR:    PAW_PBE Rb_sv 06Sep2000               
 POTCAR:    PAW_PBE Be_sv 06Sep2000               
 POTCAR:    PAW_PBE P 06Sep2000                   
 -----------------------------------------------------------------------------
|                                                                             |
|           W    W    AA    RRRRR   N    N  II  N    N   GGGG   !!!           |
|           W    W   A  A   R    R  NN   N  II  NN   N  G    G  !!!           |
|           W    W  A    A  R    R  N N  N  II  N N  N  G       !!!           |
|           W WW W  AAAAAA  RRRRR   N  N N  II  N  N N  G  GGG   !            |
|           WW  WW  A    A  R   R   N   NN  II  N   NN  G    G                |
|           W    W  A    A  R    R  N    N  II  N    N   GGGG   !!!           |
|                                                                             |
|     For optimal performance we recommend to set                             |
|       NCORE = 2 up to number-of-cores-per-socket                            |
|     NCORE specifies how many cores store one orbital (NPAR=cpu/NCORE).      |
|     This setting can greatly improve the performance of VASP for DFT.       |
|     The default, NCORE=1 might be grossly inefficient on modern             |
|     multi-core architectures or massively parallel machines. Do your        |
|     own testing! More info at https://www.vasp.at/wiki/index.php/NCORE      |
|     Unfortunately you need to use the default for GW and RPA                |
|     calculations (for HF NCORE is supported but not extensively tested      |
|     yet).                                                                   |
|                                                                             |
 -----------------------------------------------------------------------------

 POTCAR:    PAW_PBE Rb_sv 06Sep2000               
   SHA256 =  06c38fe1ec7709d96d3959f5f2c66fec330a93b52b042a8fb2dfe6a3a3fb06c1 Rb_sv/POTCAR          
   COPYR  = (c) Copyright 06Sep2000 Georg Kresse                                                    
   COPYR  = This file is part of the software VASP. Any use, copying, and all other rights are regul
   COPYR  = If you do not have a valid VASP license, you may not use, copy or distribute this file. 
   VRHFIN =Rb: 4s4p5s                                                                               
   LEXCH  = PE                                                                                      
   EATOM  =   662.5034 eV,   48.6926 Ry                                                             
                                                                                                    
   TITEL  = PAW_PBE Rb_sv 06Sep2000                                                                 
   LULTRA =        F    use ultrasoft PP ?                                                          
   IUNSCR =        1    unscreen: 0-lin 1-nonlin 2-no                                               
   RPACOR =    2.200    partial core radius                                                         
   POMASS =   85.468; ZVAL   =    9.000    mass and valenz                                          
   RCORE  =    2.500    outmost cutoff radius                                                       
   RWIGS  =    4.570; RWIGS  =    2.418    wigner-seitz radius (au A)                               
   ENMAX  =  220.112; ENMIN  =  165.084 eV                                                          
   RCLOC  =    2.200    cutoff for local pot                                                        
   LCOR   =        T    correct aug charges                                                         
   LPAW   =        T    paw PP                                                                      
   EAUG   =  423.861                                                                                
   DEXC   =    0.000                                                                                
   RMAX   =    2.546    core radius for proj-oper                                                   
   RAUG   =    1.300    factor for augmentation sphere                                              
   RDEP   =    2.541    radius for radial grids                                                     
   RDEPT  =    2.044    core radius for aug-charge                                                  
                                                                                                    
   Atomic configuration                                                                             
   10 entries                                                                                       
     n  l   j            E        occ.                                                              
     1  0  0.50    -15031.5419   2.0000                                                             
     2  0  0.50     -2007.8842   2.0000                                                             
     2  1  1.50     -1779.8144   6.0000                                                             
     3  0  0.50      -297.9619   2.0000                                                             
     3  1  1.50      -224.8335   6.0000                                                             
     3  2  2.50      -103.9539  10.0000                                                             
     4  0  0.50       -31.8932   2.0000                                                             
     5  0  0.50        -2.2327   0.9990                                                             
     4  1  1.50       -15.9645   6.0000                                                             
     4  2  1.50        -0.0020   0.0010                                                             
   Description                                                                                      
     l       E           TYP  RCUT    TYP  RCUT                                                     
     0    -31.8932387     23  2.500                                                                 
     0     -2.2326525     23  2.500                                                                 
     1    -15.9644597     23  2.500                                                                 
     1    -17.3250423     23  2.500                                                                 
     2     -0.0020100     23  2.500                                                                 
  local pseudopotential read in
  partial core-charges read in
  partial kinetic energy density read in
  atomic valenz-charges read in
  non local Contribution for L=            0  read in
    real space projection operators read in
  non local Contribution for L=            0  read in
    real space projection operators read in
  non local Contribution for L=            1  read in
    real space projection operators read in
  non local Contribution for L=            1  read in
    real space projection operators read in
  non local Contribution for L=            2  read in
    real space projection operators read in
    PAW grid and wavefunctions read in
 
   number of l-projection  operators is LMAX  =            5
   number of lm-projection operators is LMMAX =           13
 
 POTCAR:    PAW_PBE Be_sv 06Sep2000               
   SHA256 =  95d73059eaef0de9a2d42225277cca956d5b2c38504d1b500b1a4c08b9931b7a Be_sv/POTCAR          
   COPYR  = (c) Copyright 06Sep2000 Georg Kresse                                                    
   COPYR  = This file is part of the software VASP. Any use, copying, and all other rights are regul
   COPYR  = If you do not have a valid VASP license, you may not use, copy or distribute this file. 
   VRHFIN =Be: s2p0                                                                                 
   LEXCH  = PE                                                                                      
   EATOM  =   398.1457 eV,   29.2629 Ry                                                             
                                                                                                    
   TITEL  = PAW_PBE Be_sv 06Sep2000                                                                 
   LULTRA =        F    use ultrasoft PP ?                                                          
   IUNSCR =        0    unscreen: 0-lin 1-nonlin 2-no                                               
   RPACOR =    0.000    partial core radius                                                         
   POMASS =    9.013; ZVAL   =    4.000    mass and valenz                                          
   RCORE  =    1.800    outmost cutoff radius                                                       
   RWIGS  =    1.880; RWIGS  =    0.995    wigner-seitz radius (au A)                               
   ENMAX  =  308.768; ENMIN  =  231.576 eV                                                          
   ICORE  =        2    local potential                                                             
   LCOR   =        T    correct aug charges                                                         
   LPAW   =        T    paw PP                                                                      
   EAUG   =  780.944                                                                                
   RMAX   =    1.838    core radius for proj-oper                                                   
   RAUG   =    1.300    factor for augmentation sphere                                              
   RDEP   =    1.879    radius for radial grids                                                     
   RDEPT  =    1.200    core radius for aug-charge                                                  
                                                                                                    
   Atomic configuration                                                                             
    5 entries                                                                                       
     n  l   j            E        occ.                                                              
     1  0  0.50      -106.2287   2.0000                                                             
     1  0  0.50      -107.5894   0.0000                                                             
     2  0  0.50        -5.6162   1.9900                                                             
     2  1  0.50        -2.0244   0.0100                                                             
     3  2  1.50        -1.3606   0.0000                                                             
   Description                                                                                      
     l       E           TYP  RCUT    TYP  RCUT                                                     
     0   -106.2286628     23  1.500                                                                 
     0   -107.5894297     23  1.500                                                                 
     0     -5.6161740     23  1.500                                                                 
     1     -2.0243506     23  1.800                                                                 
     1     10.7523704     23  1.800                                                                 
     2     -1.3605826     15  1.800                                                                 
  local pseudopotential read in
  kinetic energy density of atom read in
  atomic valenz-charges read in
  non local Contribution for L=            0  read in
    real space projection operators read in
  non local Contribution for L=            0  read in
    real space projection operators read in
  non local Contribution for L=            0  read in
    real space projection operators read in
  non local Contribution for L=            1  read in
    real space projection operators read in
  non local Contribution for L=            1  read in
    real space projection operators read in
    PAW grid and wavefunctions read in
 
   number of l-projection  operators is LMAX  =            5
   number of lm-projection operators is LMMAX =            9
 
 POTCAR:    PAW_PBE P 06Sep2000                   
   SHA256 =  df60c54a93efe35c9e85ae94c010c75e9f6960a95d5595d7cdba4096d109af88 P/POTCAR              
   COPYR  = (c) Copyright 06Sep2000 Georg Kresse                                                    
   COPYR  = This file is part of the software VASP. Any use, copying, and all other rights are regul
   COPYR  = If you do not have a valid VASP license, you may not use, copy or distribute this file. 
   VRHFIN =P : s2p3                                                                                 
   LEXCH  = PE                                                                                      
   EATOM  =   176.0430 eV,   12.9388 Ry                                                             
                                                                                                    
   TITEL  = PAW_PBE P 06Sep2000                                                                     
   LULTRA =        F    use ultrasoft PP ?                                                          
   IUNSCR =        1    unscreen: 0-lin 1-nonlin 2-no                                               
   RPACOR =    1.500    partial core radius                                                         
   POMASS =   30.974; ZVAL   =    5.000    mass and valenz                                          
   RCORE  =    1.900    outmost cutoff radius                                                       
   RWIGS  =    2.330; RWIGS  =    1.233    wigner-seitz radius (au A)                               
   ENMAX  =  255.040; ENMIN  =  191.280 eV                                                          
   ICORE  =        2    local potential                                                             
   LCOR   =        T    correct aug charges                                                         
   LPAW   =        T    paw PP                                                                      
   EAUG   =  342.924                                                                                
   DEXC   =    0.000                                                                                
   RMAX   =    1.935    core radius for proj-oper                                                   
   RAUG   =    1.300    factor for augmentation sphere                                              
   RDEP   =    1.931    radius for radial grids                                                     
   RDEPT  =    1.794    core radius for aug-charge                                                  
                                                                                                    
   Atomic configuration                                                                             
    6 entries                                                                                       
     n  l   j            E        occ.                                                              
     1  0  0.50     -2084.0982   2.0000                                                             
     2  0  0.50      -173.9859   2.0000                                                             
     2  1  1.50      -124.4865   6.0000                                                             
     3  0  0.50       -13.9692   2.0000                                                             
     3  1  0.50        -5.5067   3.0000                                                             
     3  2  1.50        -5.4423   0.0000                                                             
   Description                                                                                      
     l       E           TYP  RCUT    TYP  RCUT                                                     
     0    -13.9691527     23  1.900                                                                 
     0    -11.7794650     23  1.900                                                                 
     1     -5.5066937     23  1.900                                                                 
     1     -0.2556953     23  1.900                                                                 
     2     -5.4423304     23  1.900                                                                 
  local pseudopotential read in
  partial core-charges read in
  partial kinetic energy density read in
  atomic valenz-charges read in
  non local Contribution for L=            0  read in
    real space projection operators read in
  non local Contribution for L=            0  read in
    real space projection operators read in
  non local Contribution for L=            1  read in
    real space projection operators read in
  non local Contribution for L=            1  read in
    real space projection operators read in
    PAW grid and wavefunctions read in
 
   number of l-projection  operators is LMAX  =            4
   number of lm-projection operators is LMMAX =            8
 
  PAW_PBE Rb_sv 06Sep2000               :
 energy of atom  1       EATOM= -662.5034
 kinetic energy error for atom=    0.0021 (will be added to EATOM!!)
  PAW_PBE Be_sv 06Sep2000               :
 energy of atom  2       EATOM= -398.1457
 kinetic energy error for atom=    0.0061 (will be added to EATOM!!)
  PAW_PBE P 06Sep2000                   :
 energy of atom  3       EATOM= -176.0430
 kinetic energy error for atom=    0.0023 (will be added to EATOM!!)
 
 
 POSCAR: Be4P3Rb.cif
  positions in direct lattice
  velocities in cartesian coordinates
 exchange correlation table for  LEXCH =        8
   RHO(1)=    0.500       N(1)  =     2000
   RHO(2)=  100.500       N(2)  =     4000
 


--------------------------------------------------------------------------------------------------------


 ion  position               nearest neighbor table
   1  0.000  0.000  0.500-   7 3.48   8 3.48   7 3.48   8 3.48   7 3.48   8 3.48   7 3.48   8 3.48
                             4 3.94   5 3.94   4 3.94   5 3.94   2 3.94   3 3.94   2 3.94   3 3.94
   2  0.000  0.500  0.143-   7 2.16   7 2.16   6 2.30   6 2.30   1 3.94   1 3.94
   3  0.000  0.500  0.857-   8 2.16   8 2.16   6 2.30   6 2.30   1 3.94   1 3.94
   4  0.500  0.000  0.857-   8 2.16   8 2.16   6 2.30   6 2.30   1 3.94   1 3.94
   5  0.500  0.000  0.143-   7 2.16   7 2.16   6 2.30   6 2.30   1 3.94   1 3.94
   6  0.000  0.000  0.000-   2 2.30   3 2.30   4 2.30   5 2.30   2 2.30   3 2.30   4 2.30   5 2.30

   7  0.500  0.500  0.261-   2 2.16   5 2.16   5 2.16   2 2.16   1 3.48   1 3.48   1 3.48   1 3.48

   8  0.500  0.500  0.739-   3 2.16   4 2.16   4 2.16   3 2.16   1 3.48   1 3.48   1 3.48   1 3.48

 
  LATTYP: Found a simple tetragonal cell.
 ALAT       =     3.6444689888
 C/A-ratio  =     2.6845662960
  
  Lattice vectors:
  
 A1 = (   3.6444689888,   0.0000000000,  -0.0000000000)
 A2 = (   0.0000000000,   3.6444689888,   0.0000000000)
 A3 = (   0.0000000000,   0.0000000000,   9.7838186140)


Analysis of symmetry for initial positions (statically):
=====================================================================
 Subroutine PRICEL returns:
 Original cell was already a primitive cell.
 

 Routine SETGRP: Setting up the symmetry group for a 
 simple tetragonal supercell.


 Subroutine GETGRP returns: Found 16 space group operations
 (whereof 16 operations were pure point group operations)
 out of a pool of 16 trial point group operations.


The static configuration has the point symmetry D_4h.


Analysis of symmetry for dynamics (positions and initial velocities):
=====================================================================
 Subroutine PRICEL returns:
 Original cell was already a primitive cell.
 

 Routine SETGRP: Setting up the symmetry group for a 
 simple tetragonal supercell.


 Subroutine GETGRP returns: Found 16 space group operations
 (whereof 16 operations were pure point group operations)
 out of a pool of 16 trial point group operations.


The dynamic configuration has the point symmetry D_4h.


 Subroutine INISYM returns: Found 16 space group operations
 (whereof 16 operations are pure point group operations),
 and found     1 'primitive' translations


----------------------------------------------------------------------------------------

                                     Primitive cell                                     

  volume of cell :     129.9502

  direct lattice vectors                    reciprocal lattice vectors
     3.644468989  0.000000000 -0.000000000     0.274388396  0.000000000  0.000000000
     0.000000000  3.644468989  0.000000000    -0.000000000  0.274388396  0.000000000
     0.000000000  0.000000000  9.783818614     0.000000000 -0.000000000  0.102209581

  length of vectors
     3.644468989  3.644468989  9.783818614     0.274388396  0.274388396  0.102209581

  position of ions in fractional coordinates (direct lattice)
     0.000000000  0.000000000  0.500000000
     0.000000000  0.500000000  0.142971773
     0.000000000  0.500000000  0.857028227
     0.500000000  0.000000000  0.857028227
     0.500000000  0.000000000  0.142971773
     0.000000000  0.000000000  0.000000000
     0.500000000  0.500000000  0.260602315
     0.500000000  0.500000000  0.739397685

  ion indices of the primitive-cell ions
   primitive index   ion index
                 1           1
                 2           2
                 3           3
                 4           4
                 5           5
                 6           6
                 7           7
                 8           8

----------------------------------------------------------------------------------------

 
 
 KPOINTS: Automatically generated mesh            

Read explicit list of k-points.

 Found    282 k-points:

 Following reciprocal coordinates:
            Coordinates               Weight
  0.000000  0.000000  0.000000      0.006803
  0.142857  0.000000  0.000000      0.027211
  0.285714  0.000000  0.000000      0.027211
  0.428571  0.000000  0.000000      0.027211
  0.142857  0.142857  0.000000      0.027211
  0.285714  0.142857  0.000000      0.054422
  0.428571  0.142857  0.000000      0.054422
  0.285714  0.285714  0.000000      0.027211
  0.428571  0.285714  0.000000      0.054422
  0.428571  0.428571  0.000000      0.027211
  0.000000  0.000000  0.333333      0.013605
  0.142857  0.000000  0.333333      0.054422
  0.285714  0.000000  0.333333      0.054422
  0.428571  0.000000  0.333333      0.054422
  0.142857  0.142857  0.333333      0.054422
  0.285714  0.142857  0.333333      0.108844
  0.428571  0.142857  0.333333      0.108844
  0.285714  0.285714  0.333333      0.054422
  0.428571  0.285714  0.333333      0.108844
  0.428571  0.428571  0.333333      0.054422
  0.000000  0.000000  0.000000      0.000000
  0.000000  0.015152  0.000000      0.000000
  0.000000  0.030303  0.000000      0.000000
  0.000000  0.045455  0.000000      0.000000
  0.000000  0.060606  0.000000      0.000000
  0.000000  0.075758  0.000000      0.000000
  0.000000  0.090909  0.000000      0.000000
  0.000000  0.106061  0.000000      0.000000
  0.000000  0.121212  0.000000      0.000000
  0.000000  0.136364  0.000000      0.000000
  0.000000  0.151515  0.000000      0.000000
  0.000000  0.166667  0.000000      0.000000
  0.000000  0.181818  0.000000      0.000000
  0.000000  0.196970  0.000000      0.000000
  0.000000  0.212121  0.000000      0.000000
  0.000000  0.227273  0.000000      0.000000
  0.000000  0.242424  0.000000      0.000000
  0.000000  0.257576  0.000000      0.000000
  0.000000  0.272727  0.000000      0.000000
  0.000000  0.287879  0.000000      0.000000
  0.000000  0.303030  0.000000      0.000000
  0.000000  0.318182  0.000000      0.000000
  0.000000  0.333333  0.000000      0.000000
  0.000000  0.348485  0.000000      0.000000
  0.000000  0.363636  0.000000      0.000000
  0.000000  0.378788  0.000000      0.000000
  0.000000  0.393939  0.000000      0.000000
  0.000000  0.409091  0.000000      0.000000
  0.000000  0.424242  0.000000      0.000000
  0.000000  0.439394  0.000000      0.000000
  0.000000  0.454545  0.000000      0.000000
  0.000000  0.469697  0.000000      0.000000
  0.000000  0.484848  0.000000      0.000000
  0.000000  0.500000  0.000000      0.000000
  0.015152  0.500000  0.000000      0.000000
  0.030303  0.500000  0.000000      0.000000
  0.045455  0.500000  0.000000      0.000000
  0.060606  0.500000  0.000000      0.000000
  0.075758  0.500000  0.000000      0.000000
  0.090909  0.500000  0.000000      0.000000
  0.106061  0.500000  0.000000      0.000000
  0.121212  0.500000  0.000000      0.000000
  0.136364  0.500000  0.000000      0.000000
  0.151515  0.500000  0.000000      0.000000
  0.166667  0.500000  0.000000      0.000000
  0.181818  0.500000  0.000000      0.000000
  0.196970  0.500000  0.000000      0.000000
  0.212121  0.500000  0.000000      0.000000
  0.227273  0.500000  0.000000      0.000000
  0.242424  0.500000  0.000000      0.000000
  0.257576  0.500000  0.000000      0.000000
  0.272727  0.500000  0.000000      0.000000
  0.287879  0.500000  0.000000      0.000000
  0.303030  0.500000  0.000000      0.000000
  0.318182  0.500000  0.000000      0.000000
  0.333333  0.500000  0.000000      0.000000
  0.348485  0.500000  0.000000      0.000000
  0.363636  0.500000  0.000000      0.000000
  0.378788  0.500000  0.000000      0.000000
  0.393939  0.500000  0.000000      0.000000
  0.409091  0.500000  0.000000      0.000000
  0.424242  0.500000  0.000000      0.000000
  0.439394  0.500000  0.000000      0.000000
  0.454545  0.500000  0.000000      0.000000
  0.469697  0.500000  0.000000      0.000000
  0.484848  0.500000  0.000000      0.000000
  0.500000  0.500000  0.000000      0.000000
  0.489362  0.489362  0.000000      0.000000
  0.478723  0.478723  0.000000      0.000000
  0.468085  0.468085  0.000000      0.000000
  0.457447  0.457447  0.000000      0.000000
  0.446809  0.446809  0.000000      0.000000
  0.436170  0.436170  0.000000      0.000000
  0.425532  0.425532  0.000000      0.000000
  0.414894  0.414894  0.000000      0.000000
  0.404255  0.404255  0.000000      0.000000
  0.393617  0.393617  0.000000      0.000000
  0.382979  0.382979  0.000000      0.000000
  0.372340  0.372340  0.000000      0.000000
  0.361702  0.361702  0.000000      0.000000
  0.351064  0.351064  0.000000      0.000000
  0.340426  0.340426  0.000000      0.000000
  0.329787  0.329787  0.000000      0.000000
  0.319149  0.319149  0.000000      0.000000
  0.308511  0.308511  0.000000      0.000000
  0.297872  0.297872  0.000000      0.000000
  0.287234  0.287234  0.000000      0.000000
  0.276596  0.276596  0.000000      0.000000
  0.265957  0.265957  0.000000      0.000000
  0.255319  0.255319  0.000000      0.000000
  0.244681  0.244681  0.000000      0.000000
  0.234043  0.234043  0.000000      0.000000
  0.223404  0.223404  0.000000      0.000000
  0.212766  0.212766  0.000000      0.000000
  0.202128  0.202128  0.000000      0.000000
  0.191489  0.191489  0.000000      0.000000
  0.180851  0.180851  0.000000      0.000000
  0.170213  0.170213  0.000000      0.000000
  0.159574  0.159574  0.000000      0.000000
  0.148936  0.148936  0.000000      0.000000
  0.138298  0.138298  0.000000      0.000000
  0.127660  0.127660  0.000000      0.000000
  0.117021  0.117021  0.000000      0.000000
  0.106383  0.106383  0.000000      0.000000
  0.095745  0.095745  0.000000      0.000000
  0.085106  0.085106  0.000000      0.000000
  0.074468  0.074468  0.000000      0.000000
  0.063830  0.063830  0.000000      0.000000
  0.053191  0.053191  0.000000      0.000000
  0.042553  0.042553  0.000000      0.000000
  0.031915  0.031915  0.000000      0.000000
  0.021277  0.021277  0.000000      0.000000
  0.010638  0.010638  0.000000      0.000000
  0.000000  0.000000  0.000000      0.000000
  0.000000  0.000000  0.045455      0.000000
  0.000000  0.000000  0.090909      0.000000
  0.000000  0.000000  0.136364      0.000000
  0.000000  0.000000  0.181818      0.000000
  0.000000  0.000000  0.227273      0.000000
  0.000000  0.000000  0.272727      0.000000
  0.000000  0.000000  0.318182      0.000000
  0.000000  0.000000  0.363636      0.000000
  0.000000  0.000000  0.409091      0.000000
  0.000000  0.000000  0.454545      0.000000
  0.000000  0.000000  0.500000      0.000000
  0.000000  0.015152  0.500000      0.000000
  0.000000  0.030303  0.500000      0.000000
  0.000000  0.045455  0.500000      0.000000
  0.000000  0.060606  0.500000      0.000000
  0.000000  0.075758  0.500000      0.000000
  0.000000  0.090909  0.500000      0.000000
  0.000000  0.106061  0.500000      0.000000
  0.000000  0.121212  0.500000      0.000000
  0.000000  0.136364  0.500000      0.000000
  0.000000  0.151515  0.500000      0.000000
  0.000000  0.166667  0.500000      0.000000
  0.000000  0.181818  0.500000      0.000000
  0.000000  0.196970  0.500000      0.000000
  0.000000  0.212121  0.500000      0.000000
  0.000000  0.227273  0.500000      0.000000
  0.000000  0.242424  0.500000      0.000000
  0.000000  0.257576  0.500000      0.000000
  0.000000  0.272727  0.500000      0.000000
  0.000000  0.287879  0.500000      0.000000
  0.000000  0.303030  0.500000      0.000000
  0.000000  0.318182  0.500000      0.000000
  0.000000  0.333333  0.500000      0.000000
  0.000000  0.348485  0.500000      0.000000
  0.000000  0.363636  0.500000      0.000000
  0.000000  0.378788  0.500000      0.000000
  0.000000  0.393939  0.500000      0.000000
  0.000000  0.409091  0.500000      0.000000
  0.000000  0.424242  0.500000      0.000000
  0.000000  0.439394  0.500000      0.000000
  0.000000  0.454545  0.500000      0.000000
  0.000000  0.469697  0.500000      0.000000
  0.000000  0.484848  0.500000      0.000000
  0.000000  0.500000  0.500000      0.000000
  0.015152  0.500000  0.500000      0.000000
  0.030303  0.500000  0.500000      0.000000
  0.045455  0.500000  0.500000      0.000000
  0.060606  0.500000  0.500000      0.000000
  0.075758  0.500000  0.500000      0.000000
  0.090909  0.500000  0.500000      0.000000
  0.106061  0.500000  0.500000      0.000000
  0.121212  0.500000  0.500000      0.000000
  0.136364  0.500000  0.500000      0.000000
  0.151515  0.500000  0.500000      0.000000
  0.166667  0.500000  0.500000      0.000000
  0.181818  0.500000  0.500000      0.000000
  0.196970  0.500000  0.500000      0.000000
  0.212121  0.500000  0.500000      0.000000
  0.227273  0.500000  0.500000      0.000000
  0.242424  0.500000  0.500000      0.000000
  0.257576  0.500000  0.500000      0.000000
  0.272727  0.500000  0.500000      0.000000
  0.287879  0.500000  0.500000      0.000000
  0.303030  0.500000  0.500000      0.000000
  0.318182  0.500000  0.500000      0.000000
  0.333333  0.500000  0.500000      0.000000
  0.348485  0.500000  0.500000      0.000000
  0.363636  0.500000  0.500000      0.000000
  0.378788  0.500000  0.500000      0.000000
  0.393939  0.500000  0.500000      0.000000
  0.409091  0.500000  0.500000      0.000000
  0.424242  0.500000  0.500000      0.000000
  0.439394  0.500000  0.500000      0.000000
  0.454545  0.500000  0.500000      0.000000
  0.469697  0.500000  0.500000      0.000000
  0.484848  0.500000  0.500000      0.000000
  0.500000  0.500000  0.500000      0.000000
  0.489362  0.489362  0.500000      0.000000
  0.478723  0.478723  0.500000      0.000000
  0.468085  0.468085  0.500000      0.000000
  0.457447  0.457447  0.500000      0.000000
  0.446809  0.446809  0.500000      0.000000
  0.436170  0.436170  0.500000      0.000000
  0.425532  0.425532  0.500000      0.000000
  0.414894  0.414894  0.500000      0.000000
  0.404255  0.404255  0.500000      0.000000
  0.393617  0.393617  0.500000      0.000000
  0.382979  0.382979  0.500000      0.000000
  0.372340  0.372340  0.500000      0.000000
  0.361702  0.361702  0.500000      0.000000
  0.351064  0.351064  0.500000      0.000000
  0.340426  0.340426  0.500000      0.000000
  0.329787  0.329787  0.500000      0.000000
  0.319149  0.319149  0.500000      0.000000
  0.308511  0.308511  0.500000      0.000000
  0.297872  0.297872  0.500000      0.000000
  0.287234  0.287234  0.500000      0.000000
  0.276596  0.276596  0.500000      0.000000
  0.265957  0.265957  0.500000      0.000000
  0.255319  0.255319  0.500000      0.000000
  0.244681  0.244681  0.500000      0.000000
  0.234043  0.234043  0.500000      0.000000
  0.223404  0.223404  0.500000      0.000000
  0.212766  0.212766  0.500000      0.000000
  0.202128  0.202128  0.500000      0.000000
  0.191489  0.191489  0.500000      0.000000
  0.180851  0.180851  0.500000      0.000000
  0.170213  0.170213  0.500000      0.000000
  0.159574  0.159574  0.500000      0.000000
  0.148936  0.148936  0.500000      0.000000
  0.138298  0.138298  0.500000      0.000000
  0.127660  0.127660  0.500000      0.000000
  0.117021  0.117021  0.500000      0.000000
  0.106383  0.106383  0.500000      0.000000
  0.095745  0.095745  0.500000      0.000000
  0.085106  0.085106  0.500000      0.000000
  0.074468  0.074468  0.500000      0.000000
  0.063830  0.063830  0.500000      0.000000
  0.053191  0.053191  0.500000      0.000000
  0.042553  0.042553  0.500000      0.000000
  0.031915  0.031915  0.500000      0.000000
  0.021277  0.021277  0.500000      0.000000
  0.010638  0.010638  0.500000      0.000000
  0.000000  0.000000  0.500000      0.000000
  0.000000  0.500000  0.000000      0.000000
  0.000000  0.500000  0.045455      0.000000
  0.000000  0.500000  0.090909      0.000000
  0.000000  0.500000  0.136364      0.000000
  0.000000  0.500000  0.181818      0.000000
  0.000000  0.500000  0.227273      0.000000
  0.000000  0.500000  0.272727      0.000000
  0.000000  0.500000  0.318182      0.000000
  0.000000  0.500000  0.363636      0.000000
  0.000000  0.500000  0.409091      0.000000
  0.000000  0.500000  0.454545      0.000000
  0.000000  0.500000  0.500000      0.000000
  0.500000  0.500000  0.000000      0.000000
  0.500000  0.500000  0.045455      0.000000
  0.500000  0.500000  0.090909      0.000000
  0.500000  0.500000  0.136364      0.000000
  0.500000  0.500000  0.181818      0.000000
  0.500000  0.500000  0.227273      0.000000
  0.500000  0.500000  0.272727      0.000000
  0.500000  0.500000  0.318182      0.000000
  0.500000  0.500000  0.363636      0.000000
  0.500000  0.500000  0.409091      0.000000
  0.500000  0.500000  0.454545      0.000000
  0.500000  0.500000  0.500000      0.000000

 Following cartesian coordinates:
            Coordinates               Weight
  0.000000  0.000000  0.000000      0.006803
  0.039198  0.000000  0.000000      0.027211
  0.078397  0.000000  0.000000      0.027211
  0.117595  0.000000  0.000000      0.027211
  0.039198  0.039198  0.000000      0.027211
  0.078397  0.039198  0.000000      0.054422
  0.117595  0.039198  0.000000      0.054422
  0.078397  0.078397  0.000000      0.027211
  0.117595  0.078397  0.000000      0.054422
  0.117595  0.117595  0.000000      0.027211
  0.000000  0.000000  0.034070      0.013605
  0.039198  0.000000  0.034070      0.054422
  0.078397  0.000000  0.034070      0.054422
  0.117595  0.000000  0.034070      0.054422
  0.039198  0.039198  0.034070      0.054422
  0.078397  0.039198  0.034070      0.108844
  0.117595  0.039198  0.034070      0.108844
  0.078397  0.078397  0.034070      0.054422
  0.117595  0.078397  0.034070      0.108844
  0.117595  0.117595  0.034070      0.054422
  0.000000  0.000000  0.000000      0.000000
  0.000000  0.004157  0.000000      0.000000
  0.000000  0.008315  0.000000      0.000000
  0.000000  0.012472  0.000000      0.000000
  0.000000  0.016630  0.000000      0.000000
  0.000000  0.020787  0.000000      0.000000
  0.000000  0.024944  0.000000      0.000000
  0.000000  0.029102  0.000000      0.000000
  0.000000  0.033259  0.000000      0.000000
  0.000000  0.037417  0.000000      0.000000
  0.000000  0.041574  0.000000      0.000000
  0.000000  0.045731  0.000000      0.000000
  0.000000  0.049889  0.000000      0.000000
  0.000000  0.054046  0.000000      0.000000
  0.000000  0.058204  0.000000      0.000000
  0.000000  0.062361  0.000000      0.000000
  0.000000  0.066518  0.000000      0.000000
  0.000000  0.070676  0.000000      0.000000
  0.000000  0.074833  0.000000      0.000000
  0.000000  0.078991  0.000000      0.000000
  0.000000  0.083148  0.000000      0.000000
  0.000000  0.087305  0.000000      0.000000
  0.000000  0.091463  0.000000      0.000000
  0.000000  0.095620  0.000000      0.000000
  0.000000  0.099778  0.000000      0.000000
  0.000000  0.103935  0.000000      0.000000
  0.000000  0.108092  0.000000      0.000000
  0.000000  0.112250  0.000000      0.000000
  0.000000  0.116407  0.000000      0.000000
  0.000000  0.120565  0.000000      0.000000
  0.000000  0.124722  0.000000      0.000000
  0.000000  0.128879  0.000000      0.000000
  0.000000  0.133037  0.000000      0.000000
  0.000000  0.137194  0.000000      0.000000
  0.004157  0.137194  0.000000      0.000000
  0.008315  0.137194  0.000000      0.000000
  0.012472  0.137194  0.000000      0.000000
  0.016630  0.137194  0.000000      0.000000
  0.020787  0.137194  0.000000      0.000000
  0.024944  0.137194  0.000000      0.000000
  0.029102  0.137194  0.000000      0.000000
  0.033259  0.137194  0.000000      0.000000
  0.037417  0.137194  0.000000      0.000000
  0.041574  0.137194  0.000000      0.000000
  0.045731  0.137194  0.000000      0.000000
  0.049889  0.137194  0.000000      0.000000
  0.054046  0.137194  0.000000      0.000000
  0.058204  0.137194  0.000000      0.000000
  0.062361  0.137194  0.000000      0.000000
  0.066518  0.137194  0.000000      0.000000
  0.070676  0.137194  0.000000      0.000000
  0.074833  0.137194  0.000000      0.000000
  0.078991  0.137194  0.000000      0.000000
  0.083148  0.137194  0.000000      0.000000
  0.087305  0.137194  0.000000      0.000000
  0.091463  0.137194  0.000000      0.000000
  0.095620  0.137194  0.000000      0.000000
  0.099778  0.137194  0.000000      0.000000
  0.103935  0.137194  0.000000      0.000000
  0.108092  0.137194  0.000000      0.000000
  0.112250  0.137194  0.000000      0.000000
  0.116407  0.137194  0.000000      0.000000
  0.120565  0.137194  0.000000      0.000000
  0.124722  0.137194  0.000000      0.000000
  0.128879  0.137194  0.000000      0.000000
  0.133037  0.137194  0.000000      0.000000
  0.137194  0.137194  0.000000      0.000000
  0.134275  0.134275  0.000000      0.000000
  0.131356  0.131356  0.000000      0.000000
  0.128437  0.128437  0.000000      0.000000
  0.125518  0.125518  0.000000      0.000000
  0.122599  0.122599  0.000000      0.000000
  0.119680  0.119680  0.000000      0.000000
  0.116761  0.116761  0.000000      0.000000
  0.113842  0.113842  0.000000      0.000000
  0.110923  0.110923  0.000000      0.000000
  0.108004  0.108004  0.000000      0.000000
  0.105085  0.105085  0.000000      0.000000
  0.102166  0.102166  0.000000      0.000000
  0.099247  0.099247  0.000000      0.000000
  0.096328  0.096328  0.000000      0.000000
  0.093409  0.093409  0.000000      0.000000
  0.090490  0.090490  0.000000      0.000000
  0.087571  0.087571  0.000000      0.000000
  0.084652  0.084652  0.000000      0.000000
  0.081733  0.081733  0.000000      0.000000
  0.078814  0.078814  0.000000      0.000000
  0.075895  0.075895  0.000000      0.000000
  0.072976  0.072976  0.000000      0.000000
  0.070057  0.070057  0.000000      0.000000
  0.067138  0.067138  0.000000      0.000000
  0.064219  0.064219  0.000000      0.000000
  0.061300  0.061300  0.000000      0.000000
  0.058381  0.058381  0.000000      0.000000
  0.055461  0.055461  0.000000      0.000000
  0.052542  0.052542  0.000000      0.000000
  0.049623  0.049623  0.000000      0.000000
  0.046704  0.046704  0.000000      0.000000
  0.043785  0.043785  0.000000      0.000000
  0.040866  0.040866  0.000000      0.000000
  0.037947  0.037947  0.000000      0.000000
  0.035028  0.035028  0.000000      0.000000
  0.032109  0.032109  0.000000      0.000000
  0.029190  0.029190  0.000000      0.000000
  0.026271  0.026271  0.000000      0.000000
  0.023352  0.023352  0.000000      0.000000
  0.020433  0.020433  0.000000      0.000000
  0.017514  0.017514  0.000000      0.000000
  0.014595  0.014595  0.000000      0.000000
  0.011676  0.011676  0.000000      0.000000
  0.008757  0.008757  0.000000      0.000000
  0.005838  0.005838  0.000000      0.000000
  0.002919  0.002919  0.000000      0.000000
  0.000000  0.000000  0.000000      0.000000
  0.000000  0.000000  0.004646      0.000000
  0.000000  0.000000  0.009292      0.000000
  0.000000  0.000000  0.013938      0.000000
  0.000000  0.000000  0.018584      0.000000
  0.000000  0.000000  0.023229      0.000000
  0.000000  0.000000  0.027875      0.000000
  0.000000  0.000000  0.032521      0.000000
  0.000000  0.000000  0.037167      0.000000
  0.000000  0.000000  0.041813      0.000000
  0.000000  0.000000  0.046459      0.000000
  0.000000  0.000000  0.051105      0.000000
  0.000000  0.004157  0.051105      0.000000
  0.000000  0.008315  0.051105      0.000000
  0.000000  0.012472  0.051105      0.000000
  0.000000  0.016630  0.051105      0.000000
  0.000000  0.020787  0.051105      0.000000
  0.000000  0.024944  0.051105      0.000000
  0.000000  0.029102  0.051105      0.000000
  0.000000  0.033259  0.051105      0.000000
  0.000000  0.037417  0.051105      0.000000
  0.000000  0.041574  0.051105      0.000000
  0.000000  0.045731  0.051105      0.000000
  0.000000  0.049889  0.051105      0.000000
  0.000000  0.054046  0.051105      0.000000
  0.000000  0.058204  0.051105      0.000000
  0.000000  0.062361  0.051105      0.000000
  0.000000  0.066518  0.051105      0.000000
  0.000000  0.070676  0.051105      0.000000
  0.000000  0.074833  0.051105      0.000000
  0.000000  0.078991  0.051105      0.000000
  0.000000  0.083148  0.051105      0.000000
  0.000000  0.087305  0.051105      0.000000
  0.000000  0.091463  0.051105      0.000000
  0.000000  0.095620  0.051105      0.000000
  0.000000  0.099778  0.051105      0.000000
  0.000000  0.103935  0.051105      0.000000
  0.000000  0.108092  0.051105      0.000000
  0.000000  0.112250  0.051105      0.000000
  0.000000  0.116407  0.051105      0.000000
  0.000000  0.120565  0.051105      0.000000
  0.000000  0.124722  0.051105      0.000000
  0.000000  0.128879  0.051105      0.000000
  0.000000  0.133037  0.051105      0.000000
  0.000000  0.137194  0.051105      0.000000
  0.004157  0.137194  0.051105      0.000000
  0.008315  0.137194  0.051105      0.000000
  0.012472  0.137194  0.051105      0.000000
  0.016630  0.137194  0.051105      0.000000
  0.020787  0.137194  0.051105      0.000000
  0.024944  0.137194  0.051105      0.000000
  0.029102  0.137194  0.051105      0.000000
  0.033259  0.137194  0.051105      0.000000
  0.037417  0.137194  0.051105      0.000000
  0.041574  0.137194  0.051105      0.000000
  0.045731  0.137194  0.051105      0.000000
  0.049889  0.137194  0.051105      0.000000
  0.054046  0.137194  0.051105      0.000000
  0.058204  0.137194  0.051105      0.000000
  0.062361  0.137194  0.051105      0.000000
  0.066518  0.137194  0.051105      0.000000
  0.070676  0.137194  0.051105      0.000000
  0.074833  0.137194  0.051105      0.000000
  0.078991  0.137194  0.051105      0.000000
  0.083148  0.137194  0.051105      0.000000
  0.087305  0.137194  0.051105      0.000000
  0.091463  0.137194  0.051105      0.000000
  0.095620  0.137194  0.051105      0.000000
  0.099778  0.137194  0.051105      0.000000
  0.103935  0.137194  0.051105      0.000000
  0.108092  0.137194  0.051105      0.000000
  0.112250  0.137194  0.051105      0.000000
  0.116407  0.137194  0.051105      0.000000
  0.120565  0.137194  0.051105      0.000000
  0.124722  0.137194  0.051105      0.000000
  0.128879  0.137194  0.051105      0.000000
  0.133037  0.137194  0.051105      0.000000
  0.137194  0.137194  0.051105      0.000000
  0.134275  0.134275  0.051105      0.000000
  0.131356  0.131356  0.051105      0.000000
  0.128437  0.128437  0.051105      0.000000
  0.125518  0.125518  0.051105      0.000000
  0.122599  0.122599  0.051105      0.000000
  0.119680  0.119680  0.051105      0.000000
  0.116761  0.116761  0.051105      0.000000
  0.113842  0.113842  0.051105      0.000000
  0.110923  0.110923  0.051105      0.000000
  0.108004  0.108004  0.051105      0.000000
  0.105085  0.105085  0.051105      0.000000
  0.102166  0.102166  0.051105      0.000000
  0.099247  0.099247  0.051105      0.000000
  0.096328  0.096328  0.051105      0.000000
  0.093409  0.093409  0.051105      0.000000
  0.090490  0.090490  0.051105      0.000000
  0.087571  0.087571  0.051105      0.000000
  0.084652  0.084652  0.051105      0.000000
  0.081733  0.081733  0.051105      0.000000
  0.078814  0.078814  0.051105      0.000000
  0.075895  0.075895  0.051105      0.000000
  0.072976  0.072976  0.051105      0.000000
  0.070057  0.070057  0.051105      0.000000
  0.067138  0.067138  0.051105      0.000000
  0.064219  0.064219  0.051105      0.000000
  0.061300  0.061300  0.051105      0.000000
  0.058381  0.058381  0.051105      0.000000
  0.055461  0.055461  0.051105      0.000000
  0.052542  0.052542  0.051105      0.000000
  0.049623  0.049623  0.051105      0.000000
  0.046704  0.046704  0.051105      0.000000
  0.043785  0.043785  0.051105      0.000000
  0.040866  0.040866  0.051105      0.000000
  0.037947  0.037947  0.051105      0.000000
  0.035028  0.035028  0.051105      0.000000
  0.032109  0.032109  0.051105      0.000000
  0.029190  0.029190  0.051105      0.000000
  0.026271  0.026271  0.051105      0.000000
  0.023352  0.023352  0.051105      0.000000
  0.020433  0.020433  0.051105      0.000000
  0.017514  0.017514  0.051105      0.000000
  0.014595  0.014595  0.051105      0.000000
  0.011676  0.011676  0.051105      0.000000
  0.008757  0.008757  0.051105      0.000000
  0.005838  0.005838  0.051105      0.000000
  0.002919  0.002919  0.051105      0.000000
  0.000000  0.000000  0.051105      0.000000
  0.000000  0.137194  0.000000      0.000000
  0.000000  0.137194  0.004646      0.000000
  0.000000  0.137194  0.009292      0.000000
  0.000000  0.137194  0.013938      0.000000
  0.000000  0.137194  0.018584      0.000000
  0.000000  0.137194  0.023229      0.000000
  0.000000  0.137194  0.027875      0.000000
  0.000000  0.137194  0.032521      0.000000
  0.000000  0.137194  0.037167      0.000000
  0.000000  0.137194  0.041813      0.000000
  0.000000  0.137194  0.046459      0.000000
  0.000000  0.137194  0.051105      0.000000
  0.137194  0.137194  0.000000      0.000000
  0.137194  0.137194  0.004646      0.000000
  0.137194  0.137194  0.009292      0.000000
  0.137194  0.137194  0.013938      0.000000
  0.137194  0.137194  0.018584      0.000000
  0.137194  0.137194  0.023229      0.000000
  0.137194  0.137194  0.027875      0.000000
  0.137194  0.137194  0.032521      0.000000
  0.137194  0.137194  0.037167      0.000000
  0.137194  0.137194  0.041813      0.000000
  0.137194  0.137194  0.046459      0.000000
  0.137194  0.137194  0.051105      0.000000
 
 
 Subroutine IBZKPT_HF returns following result:
 ==============================================
 
 Found    409 k-points in 1st BZ
 the following    409 k-points will be used (e.g. in the exchange kernel)
 Following reciprocal coordinates:   # in IRBZ
  0.000000  0.000000  0.000000    0.00680272   1 t-inv F
  0.142857  0.000000  0.000000    0.00680272   2 t-inv F
  0.285714  0.000000  0.000000    0.00680272   3 t-inv F
  0.428571  0.000000  0.000000    0.00680272   4 t-inv F
  0.142857  0.142857  0.000000    0.00680272   5 t-inv F
  0.285714  0.142857  0.000000    0.00680272   6 t-inv F
  0.428571  0.142857  0.000000    0.00680272   7 t-inv F
  0.285714  0.285714  0.000000    0.00680272   8 t-inv F
  0.428571  0.285714  0.000000    0.00680272   9 t-inv F
  0.428571  0.428571  0.000000    0.00680272  10 t-inv F
  0.000000  0.000000  0.333333    0.00680272  11 t-inv F
  0.142857  0.000000  0.333333    0.00680272  12 t-inv F
  0.285714  0.000000  0.333333    0.00680272  13 t-inv F
  0.428571  0.000000  0.333333    0.00680272  14 t-inv F
  0.142857  0.142857  0.333333    0.00680272  15 t-inv F
  0.285714  0.142857  0.333333    0.00680272  16 t-inv F
  0.428571  0.142857  0.333333    0.00680272  17 t-inv F
  0.285714  0.285714  0.333333    0.00680272  18 t-inv F
  0.428571  0.285714  0.333333    0.00680272  19 t-inv F
  0.428571  0.428571  0.333333    0.00680272  20 t-inv F
  0.000000  0.000000  0.000000    0.00000000  21 t-inv F
  0.000000  0.015152  0.000000    0.00000000  22 t-inv F
  0.000000  0.030303  0.000000    0.00000000  23 t-inv F
  0.000000  0.045455  0.000000    0.00000000  24 t-inv F
  0.000000  0.060606  0.000000    0.00000000  25 t-inv F
  0.000000  0.075758  0.000000    0.00000000  26 t-inv F
  0.000000  0.090909  0.000000    0.00000000  27 t-inv F
  0.000000  0.106061  0.000000    0.00000000  28 t-inv F
  0.000000  0.121212  0.000000    0.00000000  29 t-inv F
  0.000000  0.136364  0.000000    0.00000000  30 t-inv F
  0.000000  0.151515  0.000000    0.00000000  31 t-inv F
  0.000000  0.166667  0.000000    0.00000000  32 t-inv F
  0.000000  0.181818  0.000000    0.00000000  33 t-inv F
  0.000000  0.196970  0.000000    0.00000000  34 t-inv F
  0.000000  0.212121  0.000000    0.00000000  35 t-inv F
  0.000000  0.227273  0.000000    0.00000000  36 t-inv F
  0.000000  0.242424  0.000000    0.00000000  37 t-inv F
  0.000000  0.257576  0.000000    0.00000000  38 t-inv F
  0.000000  0.272727  0.000000    0.00000000  39 t-inv F
  0.000000  0.287879  0.000000    0.00000000  40 t-inv F
  0.000000  0.303030  0.000000    0.00000000  41 t-inv F
  0.000000  0.318182  0.000000    0.00000000  42 t-inv F
  0.000000  0.333333  0.000000    0.00000000  43 t-inv F
  0.000000  0.348485  0.000000    0.00000000  44 t-inv F
  0.000000  0.363636  0.000000    0.00000000  45 t-inv F
  0.000000  0.378788  0.000000    0.00000000  46 t-inv F
  0.000000  0.393939  0.000000    0.00000000  47 t-inv F
  0.000000  0.409091  0.000000    0.00000000  48 t-inv F
  0.000000  0.424242  0.000000    0.00000000  49 t-inv F
  0.000000  0.439394  0.000000    0.00000000  50 t-inv F
  0.000000  0.454545  0.000000    0.00000000  51 t-inv F
  0.000000  0.469697  0.000000    0.00000000  52 t-inv F
  0.000000  0.484848  0.000000    0.00000000  53 t-inv F
  0.000000  0.500000  0.000000    0.00000000  54 t-inv F
  0.015152  0.500000  0.000000    0.00000000  55 t-inv F
  0.030303  0.500000  0.000000    0.00000000  56 t-inv F
  0.045455  0.500000  0.000000    0.00000000  57 t-inv F
  0.060606  0.500000  0.000000    0.00000000  58 t-inv F
  0.075758  0.500000  0.000000    0.00000000  59 t-inv F
  0.090909  0.500000  0.000000    0.00000000  60 t-inv F
  0.106061  0.500000  0.000000    0.00000000  61 t-inv F
  0.121212  0.500000  0.000000    0.00000000  62 t-inv F
  0.136364  0.500000  0.000000    0.00000000  63 t-inv F
  0.151515  0.500000  0.000000    0.00000000  64 t-inv F
  0.166667  0.500000  0.000000    0.00000000  65 t-inv F
  0.181818  0.500000  0.000000    0.00000000  66 t-inv F
  0.196970  0.500000  0.000000    0.00000000  67 t-inv F
  0.212121  0.500000  0.000000    0.00000000  68 t-inv F
  0.227273  0.500000  0.000000    0.00000000  69 t-inv F
  0.242424  0.500000  0.000000    0.00000000  70 t-inv F
  0.257576  0.500000  0.000000    0.00000000  71 t-inv F
  0.272727  0.500000  0.000000    0.00000000  72 t-inv F
  0.287879  0.500000  0.000000    0.00000000  73 t-inv F
  0.303030  0.500000  0.000000    0.00000000  74 t-inv F
  0.318182  0.500000  0.000000    0.00000000  75 t-inv F
  0.333333  0.500000  0.000000    0.00000000  76 t-inv F
  0.348485  0.500000  0.000000    0.00000000  77 t-inv F
  0.363636  0.500000  0.000000    0.00000000  78 t-inv F
  0.378788  0.500000  0.000000    0.00000000  79 t-inv F
  0.393939  0.500000  0.000000    0.00000000  80 t-inv F
  0.409091  0.500000  0.000000    0.00000000  81 t-inv F
  0.424242  0.500000  0.000000    0.00000000  82 t-inv F
  0.439394  0.500000  0.000000    0.00000000  83 t-inv F
  0.454545  0.500000  0.000000    0.00000000  84 t-inv F
  0.469697  0.500000  0.000000    0.00000000  85 t-inv F
  0.484848  0.500000  0.000000    0.00000000  86 t-inv F
  0.500000  0.500000  0.000000    0.00000000  87 t-inv F
  0.489362  0.489362  0.000000    0.00000000  88 t-inv F
  0.478723  0.478723  0.000000    0.00000000  89 t-inv F
  0.468085  0.468085  0.000000    0.00000000  90 t-inv F
  0.457447  0.457447  0.000000    0.00000000  91 t-inv F
  0.446809  0.446809  0.000000    0.00000000  92 t-inv F
  0.436170  0.436170  0.000000    0.00000000  93 t-inv F
  0.425532  0.425532  0.000000    0.00000000  94 t-inv F
  0.414894  0.414894  0.000000    0.00000000  95 t-inv F
  0.404255  0.404255  0.000000    0.00000000  96 t-inv F
  0.393617  0.393617  0.000000    0.00000000  97 t-inv F
  0.382979  0.382979  0.000000    0.00000000  98 t-inv F
  0.372340  0.372340  0.000000    0.00000000  99 t-inv F
  0.361702  0.361702  0.000000    0.00000000 100 t-inv F
  0.351064  0.351064  0.000000    0.00000000 101 t-inv F
  0.340426  0.340426  0.000000    0.00000000 102 t-inv F
  0.329787  0.329787  0.000000    0.00000000 103 t-inv F
  0.319149  0.319149  0.000000    0.00000000 104 t-inv F
  0.308511  0.308511  0.000000    0.00000000 105 t-inv F
  0.297872  0.297872  0.000000    0.00000000 106 t-inv F
  0.287234  0.287234  0.000000    0.00000000 107 t-inv F
  0.276596  0.276596  0.000000    0.00000000 108 t-inv F
  0.265957  0.265957  0.000000    0.00000000 109 t-inv F
  0.255319  0.255319  0.000000    0.00000000 110 t-inv F
  0.244681  0.244681  0.000000    0.00000000 111 t-inv F
  0.234043  0.234043  0.000000    0.00000000 112 t-inv F
  0.223404  0.223404  0.000000    0.00000000 113 t-inv F
  0.212766  0.212766  0.000000    0.00000000 114 t-inv F
  0.202128  0.202128  0.000000    0.00000000 115 t-inv F
  0.191489  0.191489  0.000000    0.00000000 116 t-inv F
  0.180851  0.180851  0.000000    0.00000000 117 t-inv F
  0.170213  0.170213  0.000000    0.00000000 118 t-inv F
  0.159574  0.159574  0.000000    0.00000000 119 t-inv F
  0.148936  0.148936  0.000000    0.00000000 120 t-inv F
  0.138298  0.138298  0.000000    0.00000000 121 t-inv F
  0.127660  0.127660  0.000000    0.00000000 122 t-inv F
  0.117021  0.117021  0.000000    0.00000000 123 t-inv F
  0.106383  0.106383  0.000000    0.00000000 124 t-inv F
  0.095745  0.095745  0.000000    0.00000000 125 t-inv F
  0.085106  0.085106  0.000000    0.00000000 126 t-inv F
  0.074468  0.074468  0.000000    0.00000000 127 t-inv F
  0.063830  0.063830  0.000000    0.00000000 128 t-inv F
  0.053191  0.053191  0.000000    0.00000000 129 t-inv F
  0.042553  0.042553  0.000000    0.00000000 130 t-inv F
  0.031915  0.031915  0.000000    0.00000000 131 t-inv F
  0.021277  0.021277  0.000000    0.00000000 132 t-inv F
  0.010638  0.010638  0.000000    0.00000000 133 t-inv F
  0.000000  0.000000  0.000000    0.00000000 134 t-inv F
  0.000000  0.000000  0.045455    0.00000000 135 t-inv F
  0.000000  0.000000  0.090909    0.00000000 136 t-inv F
  0.000000  0.000000  0.136364    0.00000000 137 t-inv F
  0.000000  0.000000  0.181818    0.00000000 138 t-inv F
  0.000000  0.000000  0.227273    0.00000000 139 t-inv F
  0.000000  0.000000  0.272727    0.00000000 140 t-inv F
  0.000000  0.000000  0.318182    0.00000000 141 t-inv F
  0.000000  0.000000  0.363636    0.00000000 142 t-inv F
  0.000000  0.000000  0.409091    0.00000000 143 t-inv F
  0.000000  0.000000  0.454545    0.00000000 144 t-inv F
  0.000000  0.000000  0.500000    0.00000000 145 t-inv F
  0.000000  0.015152  0.500000    0.00000000 146 t-inv F
  0.000000  0.030303  0.500000    0.00000000 147 t-inv F
  0.000000  0.045455  0.500000    0.00000000 148 t-inv F
  0.000000  0.060606  0.500000    0.00000000 149 t-inv F
  0.000000  0.075758  0.500000    0.00000000 150 t-inv F
  0.000000  0.090909  0.500000    0.00000000 151 t-inv F
  0.000000  0.106061  0.500000    0.00000000 152 t-inv F
  0.000000  0.121212  0.500000    0.00000000 153 t-inv F
  0.000000  0.136364  0.500000    0.00000000 154 t-inv F
  0.000000  0.151515  0.500000    0.00000000 155 t-inv F
  0.000000  0.166667  0.500000    0.00000000 156 t-inv F
  0.000000  0.181818  0.500000    0.00000000 157 t-inv F
  0.000000  0.196970  0.500000    0.00000000 158 t-inv F
  0.000000  0.212121  0.500000    0.00000000 159 t-inv F
  0.000000  0.227273  0.500000    0.00000000 160 t-inv F
  0.000000  0.242424  0.500000    0.00000000 161 t-inv F
  0.000000  0.257576  0.500000    0.00000000 162 t-inv F
  0.000000  0.272727  0.500000    0.00000000 163 t-inv F
  0.000000  0.287879  0.500000    0.00000000 164 t-inv F
  0.000000  0.303030  0.500000    0.00000000 165 t-inv F
  0.000000  0.318182  0.500000    0.00000000 166 t-inv F
  0.000000  0.333333  0.500000    0.00000000 167 t-inv F
  0.000000  0.348485  0.500000    0.00000000 168 t-inv F
  0.000000  0.363636  0.500000    0.00000000 169 t-inv F
  0.000000  0.378788  0.500000    0.00000000 170 t-inv F
  0.000000  0.393939  0.500000    0.00000000 171 t-inv F
  0.000000  0.409091  0.500000    0.00000000 172 t-inv F
  0.000000  0.424242  0.500000    0.00000000 173 t-inv F
  0.000000  0.439394  0.500000    0.00000000 174 t-inv F
  0.000000  0.454545  0.500000    0.00000000 175 t-inv F
  0.000000  0.469697  0.500000    0.00000000 176 t-inv F
  0.000000  0.484848  0.500000    0.00000000 177 t-inv F
  0.000000  0.500000  0.500000    0.00000000 178 t-inv F
  0.015152  0.500000  0.500000    0.00000000 179 t-inv F
  0.030303  0.500000  0.500000    0.00000000 180 t-inv F
  0.045455  0.500000  0.500000    0.00000000 181 t-inv F
  0.060606  0.500000  0.500000    0.00000000 182 t-inv F
  0.075758  0.500000  0.500000    0.00000000 183 t-inv F
  0.090909  0.500000  0.500000    0.00000000 184 t-inv F
  0.106061  0.500000  0.500000    0.00000000 185 t-inv F
  0.121212  0.500000  0.500000    0.00000000 186 t-inv F
  0.136364  0.500000  0.500000    0.00000000 187 t-inv F
  0.151515  0.500000  0.500000    0.00000000 188 t-inv F
  0.166667  0.500000  0.500000    0.00000000 189 t-inv F
  0.181818  0.500000  0.500000    0.00000000 190 t-inv F
  0.196970  0.500000  0.500000    0.00000000 191 t-inv F
  0.212121  0.500000  0.500000    0.00000000 192 t-inv F
  0.227273  0.500000  0.500000    0.00000000 193 t-inv F
  0.242424  0.500000  0.500000    0.00000000 194 t-inv F
  0.257576  0.500000  0.500000    0.00000000 195 t-inv F
  0.272727  0.500000  0.500000    0.00000000 196 t-inv F
  0.287879  0.500000  0.500000    0.00000000 197 t-inv F
  0.303030  0.500000  0.500000    0.00000000 198 t-inv F
  0.318182  0.500000  0.500000    0.00000000 199 t-inv F
  0.333333  0.500000  0.500000    0.00000000 200 t-inv F
  0.348485  0.500000  0.500000    0.00000000 201 t-inv F
  0.363636  0.500000  0.500000    0.00000000 202 t-inv F
  0.378788  0.500000  0.500000    0.00000000 203 t-inv F
  0.393939  0.500000  0.500000    0.00000000 204 t-inv F
  0.409091  0.500000  0.500000    0.00000000 205 t-inv F
  0.424242  0.500000  0.500000    0.00000000 206 t-inv F
  0.439394  0.500000  0.500000    0.00000000 207 t-inv F
  0.454545  0.500000  0.500000    0.00000000 208 t-inv F
  0.469697  0.500000  0.500000    0.00000000 209 t-inv F
  0.484848  0.500000  0.500000    0.00000000 210 t-inv F
  0.500000  0.500000  0.500000    0.00000000 211 t-inv F
  0.489362  0.489362  0.500000    0.00000000 212 t-inv F
  0.478723  0.478723  0.500000    0.00000000 213 t-inv F
  0.468085  0.468085  0.500000    0.00000000 214 t-inv F
  0.457447  0.457447  0.500000    0.00000000 215 t-inv F
  0.446809  0.446809  0.500000    0.00000000 216 t-inv F
  0.436170  0.436170  0.500000    0.00000000 217 t-inv F
  0.425532  0.425532  0.500000    0.00000000 218 t-inv F
  0.414894  0.414894  0.500000    0.00000000 219 t-inv F
  0.404255  0.404255  0.500000    0.00000000 220 t-inv F
  0.393617  0.393617  0.500000    0.00000000 221 t-inv F
  0.382979  0.382979  0.500000    0.00000000 222 t-inv F
  0.372340  0.372340  0.500000    0.00000000 223 t-inv F
  0.361702  0.361702  0.500000    0.00000000 224 t-inv F
  0.351064  0.351064  0.500000    0.00000000 225 t-inv F
  0.340426  0.340426  0.500000    0.00000000 226 t-inv F
  0.329787  0.329787  0.500000    0.00000000 227 t-inv F
  0.319149  0.319149  0.500000    0.00000000 228 t-inv F
  0.308511  0.308511  0.500000    0.00000000 229 t-inv F
  0.297872  0.297872  0.500000    0.00000000 230 t-inv F
  0.287234  0.287234  0.500000    0.00000000 231 t-inv F
  0.276596  0.276596  0.500000    0.00000000 232 t-inv F
  0.265957  0.265957  0.500000    0.00000000 233 t-inv F
  0.255319  0.255319  0.500000    0.00000000 234 t-inv F
  0.244681  0.244681  0.500000    0.00000000 235 t-inv F
  0.234043  0.234043  0.500000    0.00000000 236 t-inv F
  0.223404  0.223404  0.500000    0.00000000 237 t-inv F
  0.212766  0.212766  0.500000    0.00000000 238 t-inv F
  0.202128  0.202128  0.500000    0.00000000 239 t-inv F
  0.191489  0.191489  0.500000    0.00000000 240 t-inv F
  0.180851  0.180851  0.500000    0.00000000 241 t-inv F
  0.170213  0.170213  0.500000    0.00000000 242 t-inv F
  0.159574  0.159574  0.500000    0.00000000 243 t-inv F
  0.148936  0.148936  0.500000    0.00000000 244 t-inv F
  0.138298  0.138298  0.500000    0.00000000 245 t-inv F
  0.127660  0.127660  0.500000    0.00000000 246 t-inv F
  0.117021  0.117021  0.500000    0.00000000 247 t-inv F
  0.106383  0.106383  0.500000    0.00000000 248 t-inv F
  0.095745  0.095745  0.500000    0.00000000 249 t-inv F
  0.085106  0.085106  0.500000    0.00000000 250 t-inv F
  0.074468  0.074468  0.500000    0.00000000 251 t-inv F
  0.063830  0.063830  0.500000    0.00000000 252 t-inv F
  0.053191  0.053191  0.500000    0.00000000 253 t-inv F
  0.042553  0.042553  0.500000    0.00000000 254 t-inv F
  0.031915  0.031915  0.500000    0.00000000 255 t-inv F
  0.021277  0.021277  0.500000    0.00000000 256 t-inv F
  0.010638  0.010638  0.500000    0.00000000 257 t-inv F
  0.000000  0.000000  0.500000    0.00000000 258 t-inv F
  0.000000  0.500000  0.000000    0.00000000 259 t-inv F
  0.000000  0.500000  0.045455    0.00000000 260 t-inv F
  0.000000  0.500000  0.090909    0.00000000 261 t-inv F
  0.000000  0.500000  0.136364    0.00000000 262 t-inv F
  0.000000  0.500000  0.181818    0.00000000 263 t-inv F
  0.000000  0.500000  0.227273    0.00000000 264 t-inv F
  0.000000  0.500000  0.272727    0.00000000 265 t-inv F
  0.000000  0.500000  0.318182    0.00000000 266 t-inv F
  0.000000  0.500000  0.363636    0.00000000 267 t-inv F
  0.000000  0.500000  0.409091    0.00000000 268 t-inv F
  0.000000  0.500000  0.454545    0.00000000 269 t-inv F
  0.000000  0.500000  0.500000    0.00000000 270 t-inv F
  0.500000  0.500000  0.000000    0.00000000 271 t-inv F
  0.500000  0.500000  0.045455    0.00000000 272 t-inv F
  0.500000  0.500000  0.090909    0.00000000 273 t-inv F
  0.500000  0.500000  0.136364    0.00000000 274 t-inv F
  0.500000  0.500000  0.181818    0.00000000 275 t-inv F
  0.500000  0.500000  0.227273    0.00000000 276 t-inv F
  0.500000  0.500000  0.272727    0.00000000 277 t-inv F
  0.500000  0.500000  0.318182    0.00000000 278 t-inv F
  0.500000  0.500000  0.363636    0.00000000 279 t-inv F
  0.500000  0.500000  0.409091    0.00000000 280 t-inv F
  0.500000  0.500000  0.454545    0.00000000 281 t-inv F
  0.500000  0.500000  0.500000    0.00000000 282 t-inv F
 -0.142857  0.000000  0.000000    0.00680272   2 t-inv F
  0.000000  0.142857  0.000000    0.00680272   2 t-inv F
  0.000000 -0.142857  0.000000    0.00680272   2 t-inv F
 -0.285714  0.000000  0.000000    0.00680272   3 t-inv F
  0.000000  0.285714  0.000000    0.00680272   3 t-inv F
  0.000000 -0.285714  0.000000    0.00680272   3 t-inv F
 -0.428571  0.000000  0.000000    0.00680272   4 t-inv F
  0.000000  0.428571  0.000000    0.00680272   4 t-inv F
  0.000000 -0.428571  0.000000    0.00680272   4 t-inv F
 -0.142857 -0.142857  0.000000    0.00680272   5 t-inv F
 -0.142857  0.142857  0.000000    0.00680272   5 t-inv F
  0.142857 -0.142857  0.000000    0.00680272   5 t-inv F
 -0.285714 -0.142857  0.000000    0.00680272   6 t-inv F
 -0.142857  0.285714  0.000000    0.00680272   6 t-inv F
  0.142857 -0.285714  0.000000    0.00680272   6 t-inv F
 -0.285714  0.142857  0.000000    0.00680272   6 t-inv F
  0.285714 -0.142857  0.000000    0.00680272   6 t-inv F
  0.142857  0.285714  0.000000    0.00680272   6 t-inv F
 -0.142857 -0.285714  0.000000    0.00680272   6 t-inv F
 -0.428571 -0.142857  0.000000    0.00680272   7 t-inv F
 -0.142857  0.428571  0.000000    0.00680272   7 t-inv F
  0.142857 -0.428571  0.000000    0.00680272   7 t-inv F
 -0.428571  0.142857  0.000000    0.00680272   7 t-inv F
  0.428571 -0.142857  0.000000    0.00680272   7 t-inv F
  0.142857  0.428571  0.000000    0.00680272   7 t-inv F
 -0.142857 -0.428571  0.000000    0.00680272   7 t-inv F
 -0.285714 -0.285714  0.000000    0.00680272   8 t-inv F
 -0.285714  0.285714  0.000000    0.00680272   8 t-inv F
  0.285714 -0.285714  0.000000    0.00680272   8 t-inv F
 -0.428571 -0.285714  0.000000    0.00680272   9 t-inv F
 -0.285714  0.428571  0.000000    0.00680272   9 t-inv F
  0.285714 -0.428571  0.000000    0.00680272   9 t-inv F
 -0.428571  0.285714  0.000000    0.00680272   9 t-inv F
  0.428571 -0.285714  0.000000    0.00680272   9 t-inv F
  0.285714  0.428571  0.000000    0.00680272   9 t-inv F
 -0.285714 -0.428571  0.000000    0.00680272   9 t-inv F
 -0.428571 -0.428571  0.000000    0.00680272  10 t-inv F
 -0.428571  0.428571  0.000000    0.00680272  10 t-inv F
  0.428571 -0.428571  0.000000    0.00680272  10 t-inv F
  0.000000  0.000000 -0.333333    0.00680272  11 t-inv F
 -0.142857  0.000000 -0.333333    0.00680272  12 t-inv F
  0.000000  0.142857  0.333333    0.00680272  12 t-inv F
  0.000000 -0.142857 -0.333333    0.00680272  12 t-inv F
 -0.142857  0.000000  0.333333    0.00680272  12 t-inv F
  0.142857  0.000000 -0.333333    0.00680272  12 t-inv F
  0.000000 -0.142857  0.333333    0.00680272  12 t-inv F
  0.000000  0.142857 -0.333333    0.00680272  12 t-inv F
 -0.285714  0.000000 -0.333333    0.00680272  13 t-inv F
  0.000000  0.285714  0.333333    0.00680272  13 t-inv F
  0.000000 -0.285714 -0.333333    0.00680272  13 t-inv F
 -0.285714  0.000000  0.333333    0.00680272  13 t-inv F
  0.285714  0.000000 -0.333333    0.00680272  13 t-inv F
  0.000000 -0.285714  0.333333    0.00680272  13 t-inv F
  0.000000  0.285714 -0.333333    0.00680272  13 t-inv F
 -0.428571  0.000000 -0.333333    0.00680272  14 t-inv F
  0.000000  0.428571  0.333333    0.00680272  14 t-inv F
  0.000000 -0.428571 -0.333333    0.00680272  14 t-inv F
 -0.428571  0.000000  0.333333    0.00680272  14 t-inv F
  0.428571  0.000000 -0.333333    0.00680272  14 t-inv F
  0.000000 -0.428571  0.333333    0.00680272  14 t-inv F
  0.000000  0.428571 -0.333333    0.00680272  14 t-inv F
 -0.142857 -0.142857 -0.333333    0.00680272  15 t-inv F
 -0.142857  0.142857  0.333333    0.00680272  15 t-inv F
  0.142857 -0.142857 -0.333333    0.00680272  15 t-inv F
 -0.142857 -0.142857  0.333333    0.00680272  15 t-inv F
  0.142857  0.142857 -0.333333    0.00680272  15 t-inv F
  0.142857 -0.142857  0.333333    0.00680272  15 t-inv F
 -0.142857  0.142857 -0.333333    0.00680272  15 t-inv F
 -0.285714 -0.142857 -0.333333    0.00680272  16 t-inv F
 -0.142857  0.285714  0.333333    0.00680272  16 t-inv F
  0.142857 -0.285714 -0.333333    0.00680272  16 t-inv F
 -0.285714 -0.142857  0.333333    0.00680272  16 t-inv F
  0.285714  0.142857 -0.333333    0.00680272  16 t-inv F
  0.142857 -0.285714  0.333333    0.00680272  16 t-inv F
 -0.142857  0.285714 -0.333333    0.00680272  16 t-inv F
 -0.285714  0.142857 -0.333333    0.00680272  16 t-inv F
  0.285714 -0.142857  0.333333    0.00680272  16 t-inv F
  0.142857  0.285714 -0.333333    0.00680272  16 t-inv F
 -0.142857 -0.285714  0.333333    0.00680272  16 t-inv F
  0.285714 -0.142857 -0.333333    0.00680272  16 t-inv F
 -0.285714  0.142857  0.333333    0.00680272  16 t-inv F
 -0.142857 -0.285714 -0.333333    0.00680272  16 t-inv F
  0.142857  0.285714  0.333333    0.00680272  16 t-inv F
 -0.428571 -0.142857 -0.333333    0.00680272  17 t-inv F
 -0.142857  0.428571  0.333333    0.00680272  17 t-inv F
  0.142857 -0.428571 -0.333333    0.00680272  17 t-inv F
 -0.428571 -0.142857  0.333333    0.00680272  17 t-inv F
  0.428571  0.142857 -0.333333    0.00680272  17 t-inv F
  0.142857 -0.428571  0.333333    0.00680272  17 t-inv F
 -0.142857  0.428571 -0.333333    0.00680272  17 t-inv F
 -0.428571  0.142857 -0.333333    0.00680272  17 t-inv F
  0.428571 -0.142857  0.333333    0.00680272  17 t-inv F
  0.142857  0.428571 -0.333333    0.00680272  17 t-inv F
 -0.142857 -0.428571  0.333333    0.00680272  17 t-inv F
  0.428571 -0.142857 -0.333333    0.00680272  17 t-inv F
 -0.428571  0.142857  0.333333    0.00680272  17 t-inv F
 -0.142857 -0.428571 -0.333333    0.00680272  17 t-inv F
  0.142857  0.428571  0.333333    0.00680272  17 t-inv F
 -0.285714 -0.285714 -0.333333    0.00680272  18 t-inv F
 -0.285714  0.285714  0.333333    0.00680272  18 t-inv F
  0.285714 -0.285714 -0.333333    0.00680272  18 t-inv F
 -0.285714 -0.285714  0.333333    0.00680272  18 t-inv F
  0.285714  0.285714 -0.333333    0.00680272  18 t-inv F
  0.285714 -0.285714  0.333333    0.00680272  18 t-inv F
 -0.285714  0.285714 -0.333333    0.00680272  18 t-inv F
 -0.428571 -0.285714 -0.333333    0.00680272  19 t-inv F
 -0.285714  0.428571  0.333333    0.00680272  19 t-inv F
  0.285714 -0.428571 -0.333333    0.00680272  19 t-inv F
 -0.428571 -0.285714  0.333333    0.00680272  19 t-inv F
  0.428571  0.285714 -0.333333    0.00680272  19 t-inv F
  0.285714 -0.428571  0.333333    0.00680272  19 t-inv F
 -0.285714  0.428571 -0.333333    0.00680272  19 t-inv F
 -0.428571  0.285714 -0.333333    0.00680272  19 t-inv F
  0.428571 -0.285714  0.333333    0.00680272  19 t-inv F
  0.285714  0.428571 -0.333333    0.00680272  19 t-inv F
 -0.285714 -0.428571  0.333333    0.00680272  19 t-inv F
  0.428571 -0.285714 -0.333333    0.00680272  19 t-inv F
 -0.428571  0.285714  0.333333    0.00680272  19 t-inv F
 -0.285714 -0.428571 -0.333333    0.00680272  19 t-inv F
  0.285714  0.428571  0.333333    0.00680272  19 t-inv F
 -0.428571 -0.428571 -0.333333    0.00680272  20 t-inv F
 -0.428571  0.428571  0.333333    0.00680272  20 t-inv F
  0.428571 -0.428571 -0.333333    0.00680272  20 t-inv F
 -0.428571 -0.428571  0.333333    0.00680272  20 t-inv F
  0.428571  0.428571 -0.333333    0.00680272  20 t-inv F
  0.428571 -0.428571  0.333333    0.00680272  20 t-inv F
 -0.428571  0.428571 -0.333333    0.00680272  20 t-inv F


--------------------------------------------------------------------------------------------------------




 Dimension of arrays:
   k-points           NKPTS =    282   k-points in BZ     NKDIM =    409   number of bands    NBANDS=     48
   number of dos      NEDOS =  10001   number of ions     NIONS =      8
   non local maximal  LDIM  =      5   non local SUM 2l+1 LMDIM =     13
   total plane-waves  NPLWV =  36864
   max r-space proj   IRMAX =      1   max aug-charges    IRDMAX=  13589
   dimension x,y,z NGX =    24 NGY =   24 NGZ =   64
   dimension x,y,z NGXF=    48 NGYF=   48 NGZF=  128
   support grid    NGXF=    48 NGYF=   48 NGZF=  128
   ions per type =               1   4   3
   NGX,Y,Z   is equivalent  to a cutoff of  10.95, 10.95, 10.87 a.u.
   NGXF,Y,Z  is equivalent  to a cutoff of  21.90, 21.90, 21.75 a.u.

 SYSTEM =  Be4P3Rb                                 
 POSCAR =  Be4P3Rb.cif                             

 Startparameter for this run:
   NWRITE =      2    write-flag & timer
   PREC   = accura    normal or accurate (medium, high low for compatibility)
   ISTART =      0    job   : 0-new  1-cont  2-samecut
   ICHARG =      2    charge: 1-file 2-atom 10-const
   ISPIN  =      1    spin polarized calculation?
   LNONCOLLINEAR =      F non collinear calculations
   LSORBIT =      F    spin-orbit coupling
   INIWAV =      1    electr: 0-lowe 1-rand  2-diag
   LASPH  =      F    aspherical Exc in radial PAW
 Electronic Relaxation 1
   ENCUT  =  400.0 eV  29.40 Ry    5.42 a.u.   5.94  5.94 15.95*2*pi/ulx,y,z
   ENINI  =  400.0     initial cutoff
   ENAUG  =  780.9 eV  augmentation charge cutoff
   NELM   =     90;   NELMIN=  2; NELMDL=  0     # of ELM steps 
   EDIFF  = 0.1E-04   stopping-criterion for ELM
   LREAL  =      F    real-space projection
   NLSPLINE    = F    spline interpolate recip. space projectors
   LCOMPAT=      F    compatible to vasp.4.4
   GGA_COMPAT  = T    GGA compatible to vasp.4.4-vasp.4.6
   LMAXPAW     = -100 max onsite density
   LMAXMIX     =    2 max onsite mixed and CHGCAR
   VOSKOWN=      0    Vosko Wilk Nusair interpolation
   ROPT   =    0.00000   0.00000   0.00000
 Ionic relaxation
   EDIFFG = -.1E-01   stopping-criterion for IOM
   NSW    =      0    number of steps for IOM
   NBLOCK =      1;   KBLOCK =      1    inner block; outer block 
   IBRION =     -1    ionic relax: 0-MD 1-quasi-New 2-CG
   NFREE  =      1    steps in history (QN), initial steepest desc. (CG)
   ISIF   =      3    stress and relaxation
   IWAVPR =     10    prediction:  0-non 1-charg 2-wave 3-comb
   ISYM   =      3    0-nonsym 1-usesym 2-fastsym
   LCORR  =      T    Harris-Foulkes like correction to forces

   POTIM  = 0.5000    time-step for ionic-motion
   TEIN   =    0.0    initial temperature
   TEBEG  =    0.0;   TEEND  =   0.0 temperature during run
   SMASS  =  -3.00    Nose mass-parameter (am)
   estimated Nose-frequenzy (Omega)   =  0.10E-29 period in steps = 0.13E+47 mass=  -0.304E-27a.u.
   SCALEE = 1.0000    scale energy and forces
   NPACO  =    256;   APACO  = 10.0  distance and # of slots for P.C.
   PSTRESS=    0.0 pullay stress

  Mass of Ions in am
   POMASS =  85.47  9.01 30.97
  Ionic Valenz
   ZVAL   =   9.00  4.00  5.00
  Atomic Wigner-Seitz radii
   RWIGS  =  -1.00 -1.00 -1.00
  virtual crystal weights 
   VCA    =   1.00  1.00  1.00
   NELECT =      40.0000    total number of electrons
   NUPDOWN=      -1.0000    fix difference up-down

 DOS related values:
   EMIN   =  10.00;   EMAX   =-10.00  energy-range for DOS
   EFERMI =   0.00
   ISMEAR =     0;   SIGMA  =   0.01  broadening in eV -4-tet -1-fermi 0-gaus

 Electronic relaxation 2 (details)
   IALGO  =     38    algorithm
   LDIAG  =      T    sub-space diagonalisation (order eigenvalues)
   LSUBROT=      F    optimize rotation matrix (better conditioning)
   TURBO    =      0    0=normal 1=particle mesh
   IRESTART =      0    0=no restart 2=restart with 2 vectors
   NREBOOT  =      0    no. of reboots
   NMIN     =      0    reboot dimension
   EREF     =   0.00    reference energy to select bands
   IMIX   =      1    mixing-type and parameters
     AMIX     =   0.40;   BMIX     =  1.00
     AMIX_MAG =   1.60;   BMIX_MAG =  1.00
     AMIN     =   0.10
     WC   =   100.;   INIMIX=   1;  MIXPRE=   1;  MAXMIX= -45

 Intra band minimization:
   WEIMIN = 0.0000     energy-eigenvalue tresh-hold
   EBREAK =  0.52E-07  absolut break condition
   DEPER  =   0.30     relativ break condition  

   TIME   =   0.40     timestep for ELM

  volume/ion in A,a.u.               =      16.24       109.62
  Fermi-wavevector in a.u.,A,eV,Ry     =   1.105357  2.088822 16.623787  1.221814
  Thomas-Fermi vector in A             =   2.241843
 
 Write flags
   LWAVE        =      T    write WAVECAR
   LDOWNSAMPLE  =      F    k-point downsampling of WAVECAR
   LCHARG       =      T    write CHGCAR
   LVTOT        =      F    write LOCPOT, total local potential
   LVHAR        =      F    write LOCPOT, Hartree potential only
   LELF         =      F    write electronic localiz. function (ELF)
   LORBIT       =      0    0 simple, 1 ext, 2 COOP (PROOUT), +10 PAW based schemes


 Dipole corrections
   LMONO  =      F    monopole corrections only (constant potential shift)
   LDIPOL =      F    correct potential (dipole corrections)
   IDIPOL =      0    1-x, 2-y, 3-z, 4-all directions 
   EPSILON=  1.0000000 bulk dielectric constant

 Exchange correlation treatment:
   GGA     =    PE    GGA type
   LEXCH   =     8    internal setting for exchange type
   LIBXC   =     F    Libxc                    
   VOSKOWN =     0    Vosko Wilk Nusair interpolation
   EXXOEP  =     0    0=HF, 1=EXX-LHF (local Hartree Fock) 2=EXX OEP
   LHFCALC =     T    Hartree Fock is set to
   LSYMGRAD=     F    symmetrize gradient (conserves proper symmetry)
   PRECFOCK=normal    Normal, Fast or Accurate (Low or Medium for compatibility)
   LRHFCALC=     F    long range Hartree Fock
   LRSCOR  =     F    long range correlation only (use DFT for short range part)
   LTHOMAS =     F    Thomas Fermi screening in HF
   LMODELHF=     F    short range full HF, long range fraction AEXX
   FOCKCORR=     1    mode to apply convergence corrections
   LFOCKACE=     T    use Adeptively-Compressed-Exchange operator
   ENCUT4O =  -1.0   cutoff for four orbital integrals eV
   LMAXFOCK=     4    L truncation for augmentation on plane wave grid
   LMAXFOCKAE=  -1    L truncation for all-electron charge restoration on plane wave grid
   NMAXFOCKAE=   1    number of basis functions for all-electron charge restoration
   LFOCKAEDFT=     F  apply the AE augmentation even for DFT
   NKREDX  =     1    reduce k-point grid by
   NKREDY  =     1    reduce k-point grid by
   NKREDZ  =     1    reduce k-point grid by
   SHIFTRED=     F    shift reduced grid of Gamma
   HFKIDENT=     F    idential grid for each k-point
   ODDONLY =     F    use only odd q-grid points
   EVENONLY=     F    use only even q-grid points
   HFALPHA =   -1.0000 decay constant for conv. correction
   MCALPHA =    0.0000 extent of test-charge in conv. correction in multipole expansion
   AEXX    =    0.2500 exact exchange contribution
   HFSCREEN=    0.2000 screening length (either q_TF or 0.3 A-1)
   HFSCREENC=   0.2000 screening length for correlation (either q_TF or 0.3 A-1)
   HFRCUT  =    0.0000 spherical cutoff for potential kernel
   ALDAX   =    0.7500 LDA exchange part
   AGGAX   =    0.7500 GGA exchange part
   ALDAC   =    1.0000 LDA correlation
   AGGAC   =    1.0000 GGA correlation
   ENCUTFOCK=  -1.0 apply spherical cutoff to Coloumb kernel
   NBANDSGWLOW=     1    first orbital included in HF term
   NBLOCK_FOCK=    64    blocking factor in FOCK_ACC

 Linear response parameters
   LEPSILON=     F    determine dielectric tensor
   LRPA    =     F    only Hartree local field effects (RPA)
   LNABLA  =     F    use nabla operator in PAW spheres
   LVEL    =     F    velocity operator in full k-point grid
   CSHIFT  =0.1000    complex shift for real part using Kramers Kronig
   OMEGAMAX=  -1.0    maximum frequency
[...]
  306          m_sumb_d                              0.000154                          2   4
  307        strehar                               0.000279                            1   3
  308          m_sumb_d                              0.000019                          1   4
  309        chggra                                0.002510                            1   3
  310          fft3d_mpi                             0.002007                          3   4
  311            fftbrc_mpi                            0.001924                        3   5
  312              fftbas_plan_mpi                       0.001924                      3   6
  313                map_forward                           0.001234                    4   7
  314                  map_gather                            0.000034                  2   8
  315                  m_alltoallv_z                         0.000043                  2   8
  316                  map_scatter                           0.001131                  2   8
  317                map_backward                          0.000606                    2   7
  318                  map_gather                            0.000017                  1   8
  319                  m_alltoallv_z                         0.000019                  1   8
  320                  map_scatter                           0.000559                  1   8
  321          m_sumb_d                              0.000037                          2   4
  322          pothar                                0.000180                          1   4
  323            m_sumb_d                              0.000113                        1   5
  324        m_bcast_d                             0.000132                            2   3
  325      potlok                                0.033192                              1   2
  326        fft3d_mpi                             0.012490                           13   3
  327          fftbrc_mpi                            0.012091                         13   4
  328            fftbas_plan_mpi                       0.012085                       13   5
  329              map_forward                           0.005407                     14   6
  330                map_gather                            0.000136                    8   7
  331                m_alltoallv_z                         0.000155                    8   7
  332                map_scatter                           0.005043                    8   7
  333              map_backward                          0.006313                     12   6
  334                map_gather                            0.000100                    6   7
  335                m_alltoallv_z                         0.000118                    6   7
  336                map_scatter                           0.006023                    6   7
  337        ggaall_grid                           0.019367                            1   3
  338        m_sumb_d                              0.000245                            5   3
  339        pothar                                0.000138                            1   3
  340          m_sumb_d                              0.000070                          1   4
  341        m_bcast_d                             0.000015                            1   3
  342      potlok_metagga                        0.000000                              1   2
  343      set_dd_magatom                        0.000003                              1   2
  344      set_dd_paw                            0.052687                              1   2
  345        m_sumb_d                              0.052672                            7   3
  346      m_bcast_d                             0.000137                              2   2
  347      densta                                0.001577                              1   2
  348        m_sumb_d                              0.000758                            9   3
 
 Flat profile
 ============
 
             routine name                   CPU           calls
 ---------------------------------------------------------------
 fock_fwd                              363.218468        3384
 redis_pw                              115.226237      166332
 phaser_hf                              92.639762      538902
 eddav                                  71.112884          16
 dllmm_trans_eccp_nl_fock_acc           58.688324      373086
 spher                                  57.233132        3686
 lapack                                 54.704056       34284
 fock_bck                               47.721198        3384
 m_sumb_d                               27.055635      151771
 m_bcast_d                              25.183254       68586
 rpromu_hf_acc                          13.148289      911988
 total_time                              9.350775           1
 m_alltoall_d                            7.530782      324900
 fock_force                              7.506625           1
 fock_set_gfac_vkpt                      7.109972      497448
 batched_fft                             6.879878     1077804
 racc0mu_hf_acc                          6.035486      538902
 eccp                                    5.592087        9024
 fft_and_gather                          5.586756        3666
 fft3d                                   4.816713      623052
 fock_all_dblbuf                         4.429613          12
 init_acc                                4.144852           1
 depsum_two_bands_rholm_trace_m          3.558096      497448
 apply_gfac_exchange_mu_acc              3.297994      497448
 fock_set_fsg                            2.487828          12
 pw_charge_trace_mu_acc                  2.348619      538902
 calc_dllmm_trans_and_overl_foc          2.320017      497448
 vhamil_trace_mu_acc                     2.198779      497448
 acc_cufft_makeplan                      2.138037          39
 fock_ace_acc_apply                      1.882915       26382
 m_bcast_z                               1.867212       47820
 fock_set_gfac_der                       1.830022       41454
 contraction                             1.516901      373086
 orth1                                   1.356509      110184
 hamiltmu                                1.251524       34284
 redis_proj                              1.171980      128958
 depsum_sym                              1.129929          12
 strenl                                  1.118513           1
 m_alltoallv_z                           1.108372         249
 w1_copy                                 1.097152      196998
 fock_set_fsg_der                        1.076915           1
 soft_charge_sym                         0.982742          12
 fftwav                                  0.887942      114894
 fock_ace_construct                      0.799188          12
 overl1                                  0.681317       41052
 reduce                                  0.618366        3384
 projmu_acc                              0.593695       25260
 fock_charge_mu                          0.562722      538902
 ggemm                                   0.528940       43308
 choleski                                0.516460        3666
 vnlac0_acc                              0.497207       41052
 overl                                   0.490506       59826
 proj1_acc                               0.481773        9024
 phase                                   0.427439       11845
 setup_precond                           0.335190        9024
 depsum_two_bands_rholm_trace_m          0.308196       41454
 projlat_der                             0.282082         282
 ggaall_grid                             0.279287          15
 newband                                 0.247203       38796
 fornl                                   0.223489           1
 vhamil                                  0.201745       34284
 map_scatter                             0.190430         249
 m_ibcast_z_from                         0.187072      386904
 apply_gfac_der_mu                       0.183974       41454
 fftext_mpi                              0.180350       41052
 w1_daxpy                                0.177978       26382
 lincom                                  0.175629        8178
 apply_precond                           0.172826       25260
 kinhamil                                0.163783       34284
 fft3d_mpi                               0.162330      508381
 w1_dot                                  0.160413        6768
 apply_gfac_weight_mu                    0.149915       41454
 fftwav_mpi                              0.141344      114894
 m_ireduce_z_to                          0.132090      324864
 wrk_allocate                            0.126967           1
 proj                                    0.082485         282
 elmin                                   0.065281           1
 proall                                  0.061581           1
 projxyz                                 0.057946         282
 acc_init_cublas                         0.051949           1
 orthch                                  0.047675           1
 pw_charge                               0.043740        1764
 w1_projall                              0.029464       25260
 force_and_stress                        0.022348           1
 acc_init_cusolver                       0.019745           1
 potlok                                  0.018184          14
 densta                                  0.014295          17
 fftbas_plan_mpi                         0.009521         223
 setdij_                                 0.007949          41
 waitred                                 0.007411        3384
 waitgth                                 0.007200        3384
 rspher_all                              0.006435          10
 map_gather                              0.004275         249
 inisym                                  0.004176           1
 truncate_high_frequency_w1              0.004080       43308
 augmentation_charge                     0.003107          12
 dfftw_execute                           0.001530          81
 map_forward                             0.001251         216
 map_backward                            0.001191         230
 wrk_deallocate                          0.001161           1
 pothar                                  0.001043          15
 forloc                                  0.000852           1
 set_dd_paw                              0.000395          15
 fewald                                  0.000369           1
 set_charge                              0.000369          12
 forhar                                  0.000343           2
 strelo                                  0.000287           1
 chggra                                  0.000286           1
 strkin                                  0.000273           1
 strehar                                 0.000260           1
 stufak                                  0.000230           1
 fftbrc_mpi                              0.000164         223
 rsp                                     0.000111           1
 fft_gq                                  0.000076          12
 vectorpot                               0.000061          14
 set_dd_magatom                          0.000059          15
 crpa_reader                             0.000025           1
 posmap                                  0.000023           2
 acc_cufft_makeplans                     0.000018           5
 rcp                                     0.000018           1
 fordep                                  0.000010           1
 potlok_metagga                          0.000002          14
 redis_pw_over_bands                     0.000000           1
 rotate_active_occupied_orbital          0.000000           1
 ---------------------------------------------------------------
  summed up times     1042.501934051514     
 
 Accumulative profile
 ====================
 
             routine name                   CPU           calls
 ---------------------------------------------------------------
 total_time                           1042.501934           1
 elmin                                 869.697338           1
 fock_all_dblbuf                       549.383493          12
 fock_fwd                              494.318978        3384
 eddav                                 302.174088          16
 force_and_stress                      150.721137           1
 fock_force                            144.603015           1
 redis_pw                              119.202716      166332
 fock_set_gfac_vkpt                     92.787717      497448
 phaser_hf                              92.639762      538902
 dllmm_trans_eccp_nl_fock_acc           58.688324      373086
 spher                                  57.233132        3686
 lapack                                 54.704056       34284
 projlat_der                            53.493645         282
 fock_bck                               48.033441        3384
 fock_ace_acc_apply                     36.774993       26382
 m_sumb_d                               27.055635      151771
 m_bcast_d                              25.183254       68586
 fock_ace_construct                     13.782459          12
 rpromu_hf_acc                          13.148289      911988
 fock_charge_mu                         12.813119      538902
 newband                                12.407179       38796
 fock_set_gfac_der                       8.792038       41454
 m_alltoall_d                            7.530782      324900
 batched_fft                             6.879878     1077804
 racc0mu_hf_acc                          6.035486      538902
 fft_and_gather                          5.947740        3666
 eccp                                    5.592087        9024
 strenl                                  5.573931           1
 fft3d_mpi                               5.339726      508381
 fft3d                                   4.816713      623052
 redis_proj                              4.726282      128958
 init_acc                                4.144852           1
 depsum_two_bands_rholm_trace_m          3.558096      497448
 apply_gfac_exchange_mu_acc              3.297994      497448
 hamiltmu                                3.060585       34284
 orthch                                  2.751649           1
 fock_set_fsg                            2.487828          12
 pw_charge_trace_mu_acc                  2.348619      538902
 calc_dllmm_trans_and_overl_foc          2.320017      497448
 set_charge                              2.252703          12
 vhamil_trace_mu_acc                     2.198779      497448
 acc_cufft_makeplan                      2.138037          39
 fftwav_mpi                              1.985338      114894
 m_bcast_z                               1.867212       47820
 fftwav                                  1.843994      114894
 potlok                                  1.581465          14
 contraction                             1.516901      373086
 orth1                                   1.356509      110184
 fftbrc_mpi                              1.316735         223
 fftbas_plan_mpi                         1.316572         223
 wrk_allocate                            1.209411           1
 map_forward                             1.193537         216
 depsum_sym                              1.172546          12
 m_alltoallv_z                           1.108372         249
 w1_copy                                 1.097152      196998
 fock_set_fsg_der                        1.076915           1
 soft_charge_sym                         1.069708          12
 acc_cufft_makeplans                     0.988467           5
 reduce                                  0.750456        3384
 set_dd_paw                              0.737217          15
 overl1                                  0.681317       41052
 kinhamil                                0.645012       34284
 w1_projall                              0.623159       25260
 projmu_acc                              0.593695       25260
 fftext_mpi                              0.577252       41052
 ggemm                                   0.528940       43308
 choleski                                0.516460        3666
 vnlac0_acc                              0.497207       41052
 overl                                   0.490506       59826
 proj1_acc                               0.481773        9024
 phase                                   0.427439       11845
 setup_precond                           0.335190        9024
 depsum_two_bands_rholm_trace_m          0.308196       41454
 ggaall_grid                             0.279287          15
 fornl                                   0.241048           1
 vhamil                                  0.201745       34284
 map_scatter                             0.190430         249
 m_ibcast_z_from                         0.187072      386904
 apply_gfac_der_mu                       0.183974       41454
 w1_daxpy                                0.177978       26382
 lincom                                  0.175629        8178
 apply_precond                           0.172826       25260
 w1_dot                                  0.160648        6768
 proall                                  0.154932           1
 apply_gfac_weight_mu                    0.149915       41454
 m_ireduce_z_to                          0.132090      324864
 map_backward                            0.111983         230
 proj                                    0.089694         282
 projxyz                                 0.058385         282
 acc_init_cublas                         0.051949           1
 pw_charge                               0.043740        1764
 densta                                  0.029507          17
 acc_init_cusolver                       0.019745           1
 setdij_                                 0.015098          41
 augmentation_charge                     0.010080          12
 waitred                                 0.007411        3384
 waitgth                                 0.007200        3384
 rspher_all                              0.006435          10
 fft_gq                                  0.005623          12
 map_gather                              0.004275         249
 inisym                                  0.004199           1
 truncate_high_frequency_w1              0.004080       43308
 chggra                                  0.002510           1
 pothar                                  0.002255          15
 dfftw_execute                           0.001530          81
 fordep                                  0.001509           1
 wrk_deallocate                          0.001161           1
 fewald                                  0.000985           1
 forloc                                  0.000884           1
 forhar                                  0.000497           2
 strkin                                  0.000332           1
 strelo                                  0.000325           1
 strehar                                 0.000279           1
 stufak                                  0.000230           1
 rsp                                     0.000111           1
 vectorpot                               0.000061          14
 set_dd_magatom                          0.000059          15
 crpa_reader                             0.000025           1
 posmap                                  0.000023           2
 rcp                                     0.000018           1
 potlok_metagga                          0.000002          14
 redis_pw_over_bands                     0.000000           1
 rotate_active_occupied_orbital          0.000000           1
 ---------------------------------------------------------------
 
Profiling took   1.527149  0.919589  0.003881  0.003798 seconds
Profiling took   0.862283 seconds
