<?xml version="1.0" encoding="ISO-8859-1"?>
<modeling>
 <generator>
  <i name="program" type="string">vasp </i>
  <i name="version" type="string">6.3.2  </i>
  <i name="subversion" type="string">27Jun22 (build Jan 18 2024 14:18:24) complex                          parallel </i>
  <i name="platform" type="string">LinuxNV_CrayMPICH </i>
  <i name="date" type="string">2024 05 20 </i>
  <i name="time" type="string">23:06:48 </i>
 </generator>
 <incar>
  <i type="string" name="SYSTEM">Be4P3Rb</i>
  <i type="int" name="ISTART">     1</i>
  <i type="string" name="PREC">Accurate</i>
  <i type="string" name="ALGO">Normal</i>
  <i type="int" name="ICHARG">     0</i>
  <i type="int" name="NELM">    90</i>
  <i type="int" name="IBRION">     2</i>
  <i name="EDIFF">      0.00001000</i>
  <i name="EDIFFG">     -0.01000000</i>
  <i type="int" name="NSW">     0</i>
  <i type="int" name="ISIF">     3</i>
  <i name="ENCUT">    400.00000000</i>
  <i type="int" name="NEDOS"> 10001</i>
  <i type="logical" name="LREAL"> F  </i>
  <i type="int" name="ISMEAR">     0</i>
  <i name="SIGMA">      0.01000000</i>
  <i type="logical" name="LWAVE"> T  </i>
  <i type="logical" name="LCHARG"> T  </i>
  <i name="HFSCREEN">      0.20000000</i>
  <i type="logical" name="LHFCALC"> T  </i>
  <i type="string" name="GGA">PE</i>
  <i name="AEXX">      0.25000000</i>
 </incar>
 <primitive_cell>
  <structure name="primitive_cell" >
   <crystal>
    <varray name="basis" >
     <v>       3.64446899       0.00000000      -0.00000000 </v>
     <v>       0.00000000       3.64446899       0.00000000 </v>
     <v>       0.00000000       0.00000000       9.78381861 </v>
    </varray>
    <i name="volume">    129.95018760 </i>
    <varray name="rec_basis" >
     <v>       0.27438840       0.00000000       0.00000000 </v>
     <v>      -0.00000000       0.27438840       0.00000000 </v>
     <v>       0.00000000      -0.00000000       0.10220958 </v>
    </varray>
   </crystal>
   <varray name="positions" >
    <v>       0.00000000       0.00000000       0.50000000 </v>
    <v>       0.00000000       0.50000000       0.14297177 </v>
    <v>       0.00000000       0.50000000       0.85702823 </v>
    <v>       0.50000000       0.00000000       0.85702823 </v>
    <v>       0.50000000       0.00000000       0.14297177 </v>
    <v>       0.00000000       0.00000000       0.00000000 </v>
    <v>       0.50000000       0.50000000       0.26060231 </v>
    <v>       0.50000000       0.50000000       0.73939769 </v>
   </varray>
  </structure>
  <varray name="primitive_index" >
   <v type="int" >        1 </v>
   <v type="int" >        2 </v>
   <v type="int" >        3 </v>
   <v type="int" >        4 </v>
   <v type="int" >        5 </v>
   <v type="int" >        6 </v>
   <v type="int" >        7 </v>
   <v type="int" >        8 </v>
  </varray>
 </primitive_cell>
 <kpoints>
  <varray name="kpointlist" >
   <v>       0.00000000       0.00000000       0.00000000 </v>
   <v>       0.14285714       0.00000000       0.00000000 </v>
   <v>       0.28571429       0.00000000       0.00000000 </v>
   <v>       0.42857143       0.00000000       0.00000000 </v>
   <v>       0.14285714       0.14285714       0.00000000 </v>
   <v>       0.28571429       0.14285714       0.00000000 </v>
   <v>       0.42857143       0.14285714       0.00000000 </v>
   <v>       0.28571429       0.28571429       0.00000000 </v>
   <v>       0.42857143       0.28571429       0.00000000 </v>
   <v>       0.42857143       0.42857143       0.00000000 </v>
   <v>       0.00000000       0.00000000       0.33333333 </v>
   <v>       0.14285714       0.00000000       0.33333333 </v>
   <v>       0.28571429       0.00000000       0.33333333 </v>
   <v>       0.42857143       0.00000000       0.33333333 </v>
   <v>       0.14285714       0.14285714       0.33333333 </v>
   <v>       0.28571429       0.14285714       0.33333333 </v>
   <v>       0.42857143       0.14285714       0.33333333 </v>
   <v>       0.28571429       0.28571429       0.33333333 </v>
   <v>       0.42857143       0.28571429       0.33333333 </v>
   <v>       0.42857143       0.42857143       0.33333333 </v>
   <v>       0.00000000       0.00000000       0.00000000 </v>
   <v>       0.00000000       0.01515152       0.00000000 </v>
   <v>       0.00000000       0.03030303       0.00000000 </v>
   <v>       0.00000000       0.04545455       0.00000000 </v>
   <v>       0.00000000       0.06060606       0.00000000 </v>
   <v>       0.00000000       0.07575758       0.00000000 </v>
   <v>       0.00000000       0.09090909       0.00000000 </v>
   <v>       0.00000000       0.10606061       0.00000000 </v>
   <v>       0.00000000       0.12121212       0.00000000 </v>
   <v>       0.00000000       0.13636364       0.00000000 </v>
   <v>       0.00000000       0.15151515       0.00000000 </v>
   <v>       0.00000000       0.16666667       0.00000000 </v>
   <v>       0.00000000       0.18181818       0.00000000 </v>
   <v>       0.00000000       0.19696970       0.00000000 </v>
   <v>       0.00000000       0.21212121       0.00000000 </v>
   <v>       0.00000000       0.22727273       0.00000000 </v>
   <v>       0.00000000       0.24242424       0.00000000 </v>
   <v>       0.00000000       0.25757576       0.00000000 </v>
   <v>       0.00000000       0.27272727       0.00000000 </v>
   <v>       0.00000000       0.28787879       0.00000000 </v>
   <v>       0.00000000       0.30303030       0.00000000 </v>
   <v>       0.00000000       0.31818182       0.00000000 </v>
   <v>       0.00000000       0.33333333       0.00000000 </v>
   <v>       0.00000000       0.34848485       0.00000000 </v>
   <v>       0.00000000       0.36363636       0.00000000 </v>
   <v>       0.00000000       0.37878788       0.00000000 </v>
   <v>       0.00000000       0.39393939       0.00000000 </v>
   <v>       0.00000000       0.40909091       0.00000000 </v>
   <v>       0.00000000       0.42424242       0.00000000 </v>
   <v>       0.00000000       0.43939394       0.00000000 </v>
   <v>       0.00000000       0.45454545       0.00000000 </v>
   <v>       0.00000000       0.46969697       0.00000000 </v>
   <v>       0.00000000       0.48484848       0.00000000 </v>
   <v>       0.00000000       0.50000000       0.00000000 </v>
   <v>       0.01515152       0.50000000       0.00000000 </v>
   <v>       0.03030303       0.50000000       0.00000000 </v>
   <v>       0.04545455       0.50000000       0.00000000 </v>
   <v>       0.06060606       0.50000000       0.00000000 </v>
   <v>       0.07575758       0.50000000       0.00000000 </v>
   <v>       0.09090909       0.50000000       0.00000000 </v>
   <v>       0.10606061       0.50000000       0.00000000 </v>
   <v>       0.12121212       0.50000000       0.00000000 </v>
   <v>       0.13636364       0.50000000       0.00000000 </v>
   <v>       0.15151515       0.50000000       0.00000000 </v>
   <v>       0.16666667       0.50000000       0.00000000 </v>
   <v>       0.18181818       0.50000000       0.00000000 </v>
   <v>       0.19696970       0.50000000       0.00000000 </v>
   <v>       0.21212121       0.50000000       0.00000000 </v>
   <v>       0.22727273       0.50000000       0.00000000 </v>
   <v>       0.24242424       0.50000000       0.00000000 </v>
   <v>       0.25757576       0.50000000       0.00000000 </v>
   <v>       0.27272727       0.50000000       0.00000000 </v>
   <v>       0.28787879       0.50000000       0.00000000 </v>
   <v>       0.30303030       0.50000000       0.00000000 </v>
   <v>       0.31818182       0.50000000       0.00000000 </v>
   <v>       0.33333333       0.50000000       0.00000000 </v>
   <v>       0.34848485       0.50000000       0.00000000 </v>
   <v>       0.36363636       0.50000000       0.00000000 </v>
   <v>       0.37878788       0.50000000       0.00000000 </v>
   <v>       0.39393939       0.50000000       0.00000000 </v>
   <v>       0.40909091       0.50000000       0.00000000 </v>
   <v>       0.42424242       0.50000000       0.00000000 </v>
   <v>       0.43939394       0.50000000       0.00000000 </v>
   <v>       0.45454545       0.50000000       0.00000000 </v>
   <v>       0.46969697       0.50000000       0.00000000 </v>
   <v>       0.48484848       0.50000000       0.00000000 </v>
   <v>       0.50000000       0.50000000       0.00000000 </v>
   <v>       0.48936170       0.48936170       0.00000000 </v>
   <v>       0.47872340       0.47872340       0.00000000 </v>
   <v>       0.46808511       0.46808511       0.00000000 </v>
   <v>       0.45744681       0.45744681       0.00000000 </v>
   <v>       0.44680851       0.44680851       0.00000000 </v>
   <v>       0.43617021       0.43617021       0.00000000 </v>
   <v>       0.42553191       0.42553191       0.00000000 </v>
   <v>       0.41489362       0.41489362       0.00000000 </v>
   <v>       0.40425532       0.40425532       0.00000000 </v>
   <v>       0.39361702       0.39361702       0.00000000 </v>
   <v>       0.38297872       0.38297872       0.00000000 </v>
   <v>       0.37234043       0.37234043       0.00000000 </v>
   <v>       0.36170213       0.36170213       0.00000000 </v>
   <v>       0.35106383       0.35106383       0.00000000 </v>
   <v>       0.34042553       0.34042553       0.00000000 </v>
   <v>       0.32978723       0.32978723       0.00000000 </v>
   <v>       0.31914894       0.31914894       0.00000000 </v>
   <v>       0.30851064       0.30851064       0.00000000 </v>
   <v>       0.29787234       0.29787234       0.00000000 </v>
   <v>       0.28723404       0.28723404       0.00000000 </v>
   <v>       0.27659574       0.27659574       0.00000000 </v>
   <v>       0.26595745       0.26595745       0.00000000 </v>
   <v>       0.25531915       0.25531915       0.00000000 </v>
   <v>       0.24468085       0.24468085       0.00000000 </v>
   <v>       0.23404255       0.23404255       0.00000000 </v>
   <v>       0.22340426       0.22340426       0.00000000 </v>
   <v>       0.21276596       0.21276596       0.00000000 </v>
   <v>       0.20212766       0.20212766       0.00000000 </v>
   <v>       0.19148936       0.19148936       0.00000000 </v>
   <v>       0.18085106       0.18085106       0.00000000 </v>
   <v>       0.17021277       0.17021277       0.00000000 </v>
   <v>       0.15957447       0.15957447       0.00000000 </v>
   <v>       0.14893617       0.14893617       0.00000000 </v>
   <v>       0.13829787       0.13829787       0.00000000 </v>
   <v>       0.12765957       0.12765957       0.00000000 </v>
   <v>       0.11702128       0.11702128       0.00000000 </v>
   <v>       0.10638298       0.10638298       0.00000000 </v>
   <v>       0.09574468       0.09574468       0.00000000 </v>
   <v>       0.08510638       0.08510638       0.00000000 </v>
   <v>       0.07446809       0.07446809       0.00000000 </v>
   <v>       0.06382979       0.06382979       0.00000000 </v>
   <v>       0.05319149       0.05319149       0.00000000 </v>
   <v>       0.04255319       0.04255319       0.00000000 </v>
   <v>       0.03191489       0.03191489       0.00000000 </v>
   <v>       0.02127660       0.02127660       0.00000000 </v>
   <v>       0.01063830       0.01063830       0.00000000 </v>
   <v>       0.00000000       0.00000000       0.00000000 </v>
   <v>       0.00000000       0.00000000       0.04545455 </v>
   <v>       0.00000000       0.00000000       0.09090909 </v>
   <v>       0.00000000       0.00000000       0.13636364 </v>
   <v>       0.00000000       0.00000000       0.18181818 </v>
   <v>       0.00000000       0.00000000       0.22727273 </v>
   <v>       0.00000000       0.00000000       0.27272727 </v>
   <v>       0.00000000       0.00000000       0.31818182 </v>
   <v>       0.00000000       0.00000000       0.36363636 </v>
   <v>       0.00000000       0.00000000       0.40909091 </v>
   <v>       0.00000000       0.00000000       0.45454545 </v>
   <v>       0.00000000       0.00000000       0.50000000 </v>
   <v>       0.00000000       0.01515152       0.50000000 </v>
   <v>       0.00000000       0.03030303       0.50000000 </v>
   <v>       0.00000000       0.04545455       0.50000000 </v>
   <v>       0.00000000       0.06060606       0.50000000 </v>
   <v>       0.00000000       0.07575758       0.50000000 </v>
   <v>       0.00000000       0.09090909       0.50000000 </v>
   <v>       0.00000000       0.10606061       0.50000000 </v>
   <v>       0.00000000       0.12121212       0.50000000 </v>
   <v>       0.00000000       0.13636364       0.50000000 </v>
   <v>       0.00000000       0.15151515       0.50000000 </v>
   <v>       0.00000000       0.16666667       0.50000000 </v>
   <v>       0.00000000       0.18181818       0.50000000 </v>
   <v>       0.00000000       0.19696970       0.50000000 </v>
   <v>       0.00000000       0.21212121       0.50000000 </v>
   <v>       0.00000000       0.22727273       0.50000000 </v>
   <v>       0.00000000       0.24242424       0.50000000 </v>
   <v>       0.00000000       0.25757576       0.50000000 </v>
   <v>       0.00000000       0.27272727       0.50000000 </v>
   <v>       0.00000000       0.28787879       0.50000000 </v>
   <v>       0.00000000       0.30303030       0.50000000 </v>
   <v>       0.00000000       0.31818182       0.50000000 </v>
   <v>       0.00000000       0.33333333       0.50000000 </v>
   <v>       0.00000000       0.34848485       0.50000000 </v>
   <v>       0.00000000       0.36363636       0.50000000 </v>
   <v>       0.00000000       0.37878788       0.50000000 </v>
   <v>       0.00000000       0.39393939       0.50000000 </v>
   <v>       0.00000000       0.40909091       0.50000000 </v>
   <v>       0.00000000       0.42424242       0.50000000 </v>
   <v>       0.00000000       0.43939394       0.50000000 </v>
   <v>       0.00000000       0.45454545       0.50000000 </v>
   <v>       0.00000000       0.46969697       0.50000000 </v>
   <v>       0.00000000       0.48484848       0.50000000 </v>
   <v>       0.00000000       0.50000000       0.50000000 </v>
   <v>       0.01515152       0.50000000       0.50000000 </v>
   <v>       0.03030303       0.50000000       0.50000000 </v>
   <v>       0.04545455       0.50000000       0.50000000 </v>
   <v>       0.06060606       0.50000000       0.50000000 </v>
   <v>       0.07575758       0.50000000       0.50000000 </v>
   <v>       0.09090909       0.50000000       0.50000000 </v>
   <v>       0.10606061       0.50000000       0.50000000 </v>
   <v>       0.12121212       0.50000000       0.50000000 </v>
   <v>       0.13636364       0.50000000       0.50000000 </v>
   <v>       0.15151515       0.50000000       0.50000000 </v>
   <v>       0.16666667       0.50000000       0.50000000 </v>
   <v>       0.18181818       0.50000000       0.50000000 </v>
   <v>       0.19696970       0.50000000       0.50000000 </v>
   <v>       0.21212121       0.50000000       0.50000000 </v>
   <v>       0.22727273       0.50000000       0.50000000 </v>
   <v>       0.24242424       0.50000000       0.50000000 </v>
   <v>       0.25757576       0.50000000       0.50000000 </v>
   <v>       0.27272727       0.50000000       0.50000000 </v>
   <v>       0.28787879       0.50000000       0.50000000 </v>
   <v>       0.30303030       0.50000000       0.50000000 </v>
   <v>       0.31818182       0.50000000       0.50000000 </v>
   <v>       0.33333333       0.50000000       0.50000000 </v>
   <v>       0.34848485       0.50000000       0.50000000 </v>
   <v>       0.36363636       0.50000000       0.50000000 </v>
   <v>       0.37878788       0.50000000       0.50000000 </v>
   <v>       0.39393939       0.50000000       0.50000000 </v>
   <v>       0.40909091       0.50000000       0.50000000 </v>
   <v>       0.42424242       0.50000000       0.50000000 </v>
   <v>       0.43939394       0.50000000       0.50000000 </v>
   <v>       0.45454545       0.50000000       0.50000000 </v>
   <v>       0.46969697       0.50000000       0.50000000 </v>
   <v>       0.48484848       0.50000000       0.50000000 </v>
   <v>       0.50000000       0.50000000       0.50000000 </v>
   <v>       0.48936170       0.48936170       0.50000000 </v>
   <v>       0.47872340       0.47872340       0.50000000 </v>
   <v>       0.46808511       0.46808511       0.50000000 </v>
   <v>       0.45744681       0.45744681       0.50000000 </v>
   <v>       0.44680851       0.44680851       0.50000000 </v>
   <v>       0.43617021       0.43617021       0.50000000 </v>
   <v>       0.42553191       0.42553191       0.50000000 </v>
   <v>       0.41489362       0.41489362       0.50000000 </v>
   <v>       0.40425532       0.40425532       0.50000000 </v>
   <v>       0.39361702       0.39361702       0.50000000 </v>
   <v>       0.38297872       0.38297872       0.50000000 </v>
   <v>       0.37234043       0.37234043       0.50000000 </v>
   <v>       0.36170213       0.36170213       0.50000000 </v>
   <v>       0.35106383       0.35106383       0.50000000 </v>
   <v>       0.34042553       0.34042553       0.50000000 </v>
   <v>       0.32978723       0.32978723       0.50000000 </v>
   <v>       0.31914894       0.31914894       0.50000000 </v>
   <v>       0.30851064       0.30851064       0.50000000 </v>
   <v>       0.29787234       0.29787234       0.50000000 </v>
   <v>       0.28723404       0.28723404       0.50000000 </v>
   <v>       0.27659574       0.27659574       0.50000000 </v>
   <v>       0.26595745       0.26595745       0.50000000 </v>
   <v>       0.25531915       0.25531915       0.50000000 </v>
   <v>       0.24468085       0.24468085       0.50000000 </v>
   <v>       0.23404255       0.23404255       0.50000000 </v>
   <v>       0.22340426       0.22340426       0.50000000 </v>
   <v>       0.21276596       0.21276596       0.50000000 </v>
   <v>       0.20212766       0.20212766       0.50000000 </v>
   <v>       0.19148936       0.19148936       0.50000000 </v>
   <v>       0.18085106       0.18085106       0.50000000 </v>
   <v>       0.17021277       0.17021277       0.50000000 </v>
   <v>       0.15957447       0.15957447       0.50000000 </v>
   <v>       0.14893617       0.14893617       0.50000000 </v>
   <v>       0.13829787       0.13829787       0.50000000 </v>
   <v>       0.12765957       0.12765957       0.50000000 </v>
   <v>       0.11702128       0.11702128       0.50000000 </v>
   <v>       0.10638298       0.10638298       0.50000000 </v>
   <v>       0.09574468       0.09574468       0.50000000 </v>
   <v>       0.08510638       0.08510638       0.50000000 </v>
   <v>       0.07446809       0.07446809       0.50000000 </v>
   <v>       0.06382979       0.06382979       0.50000000 </v>
   <v>       0.05319149       0.05319149       0.50000000 </v>
   <v>       0.04255319       0.04255319       0.50000000 </v>
   <v>       0.03191489       0.03191489       0.50000000 </v>
   <v>       0.02127660       0.02127660       0.50000000 </v>
   <v>       0.01063830       0.01063830       0.50000000 </v>
   <v>       0.00000000       0.00000000       0.50000000 </v>
   <v>       0.00000000       0.50000000       0.00000000 </v>
   <v>       0.00000000       0.50000000       0.04545455 </v>
   <v>       0.00000000       0.50000000       0.09090909 </v>
   <v>       0.00000000       0.50000000       0.13636364 </v>
   <v>       0.00000000       0.50000000       0.18181818 </v>
   <v>       0.00000000       0.50000000       0.22727273 </v>
   <v>       0.00000000       0.50000000       0.27272727 </v>
   <v>       0.00000000       0.50000000       0.31818182 </v>
   <v>       0.00000000       0.50000000       0.36363636 </v>
   <v>       0.00000000       0.50000000       0.40909091 </v>
   <v>       0.00000000       0.50000000       0.45454545 </v>
   <v>       0.00000000       0.50000000       0.50000000 </v>
   <v>       0.50000000       0.50000000       0.00000000 </v>
   <v>       0.50000000       0.50000000       0.04545455 </v>
   <v>       0.50000000       0.50000000       0.09090909 </v>
   <v>       0.50000000       0.50000000       0.13636364 </v>
   <v>       0.50000000       0.50000000       0.18181818 </v>
   <v>       0.50000000       0.50000000       0.22727273 </v>
   <v>       0.50000000       0.50000000       0.27272727 </v>
   <v>       0.50000000       0.50000000       0.31818182 </v>
   <v>       0.50000000       0.50000000       0.36363636 </v>
   <v>       0.50000000       0.50000000       0.40909091 </v>
   <v>       0.50000000       0.50000000       0.45454545 </v>
   <v>       0.50000000       0.50000000       0.50000000 </v>
  </varray>
  <varray name="weights" >
   <v>       0.00680272 </v>
   <v>       0.02721088 </v>
   <v>       0.02721088 </v>
   <v>       0.02721088 </v>
   <v>       0.02721088 </v>
   <v>       0.05442177 </v>
   <v>       0.05442177 </v>
   <v>       0.02721088 </v>
   <v>       0.05442177 </v>
   <v>       0.02721088 </v>
   <v>       0.01360544 </v>
   <v>       0.05442177 </v>
   <v>       0.05442177 </v>
   <v>       0.05442177 </v>
   <v>       0.05442177 </v>
   <v>       0.10884354 </v>
   <v>       0.10884354 </v>
   <v>       0.05442177 </v>
   <v>       0.10884354 </v>
   <v>       0.05442177 </v>
   <v>       0.00000000 </v>
   <v>       0.00000000 </v>
   <v>       0.00000000 </v>
   <v>       0.00000000 </v>
   <v>       0.00000000 </v>
   <v>       0.00000000 </v>
   <v>       0.00000000 </v>
   <v>       0.00000000 </v>
   <v>       0.00000000 </v>
   <v>       0.00000000 </v>
   <v>       0.00000000 </v>
   <v>       0.00000000 </v>
   <v>       0.00000000 </v>
   <v>       0.00000000 </v>
   <v>       0.00000000 </v>
   <v>       0.00000000 </v>
   <v>       0.00000000 </v>
   <v>       0.00000000 </v>
   <v>       0.00000000 </v>
   <v>       0.00000000 </v>
   <v>       0.00000000 </v>
   <v>       0.00000000 </v>
   <v>       0.00000000 </v>
   <v>       0.00000000 </v>
   <v>       0.00000000 </v>
   <v>       0.00000000 </v>
   <v>       0.00000000 </v>
   <v>       0.00000000 </v>
   <v>       0.00000000 </v>
   <v>       0.00000000 </v>
   <v>       0.00000000 </v>
   <v>       0.00000000 </v>
   <v>       0.00000000 </v>
   <v>       0.00000000 </v>
   <v>       0.00000000 </v>
   <v>       0.00000000 </v>
   <v>       0.00000000 </v>
   <v>       0.00000000 </v>
   <v>       0.00000000 </v>
   <v>       0.00000000 </v>
   <v>       0.00000000 </v>
   <v>       0.00000000 </v>
   <v>       0.00000000 </v>
   <v>       0.00000000 </v>
   <v>       0.00000000 </v>
   <v>       0.00000000 </v>
   <v>       0.00000000 </v>
   <v>       0.00000000 </v>
   <v>       0.00000000 </v>
   <v>       0.00000000 </v>
   <v>       0.00000000 </v>
   <v>       0.00000000 </v>
   <v>       0.00000000 </v>
   <v>       0.00000000 </v>
   <v>       0.00000000 </v>
   <v>       0.00000000 </v>
   <v>       0.00000000 </v>
   <v>       0.00000000 </v>
   <v>       0.00000000 </v>
   <v>       0.00000000 </v>
   <v>       0.00000000 </v>
   <v>       0.00000000 </v>
   <v>       0.00000000 </v>
   <v>       0.00000000 </v>
   <v>       0.00000000 </v>
   <v>       0.00000000 </v>
   <v>       0.00000000 </v>
   <v>       0.00000000 </v>
   <v>       0.00000000 </v>
   <v>       0.00000000 </v>
   <v>       0.00000000 </v>
   <v>       0.00000000 </v>
   <v>       0.00000000 </v>
   <v>       0.00000000 </v>
   <v>       0.00000000 </v>
   <v>       0.00000000 </v>
   <v>       0.00000000 </v>
   <v>       0.00000000 </v>
   <v>       0.00000000 </v>
   <v>       0.00000000 </v>
   <v>       0.00000000 </v>
   <v>       0.00000000 </v>
   <v>       0.00000000 </v>
   <v>       0.00000000 </v>
   <v>       0.00000000 </v>
   <v>       0.00000000 </v>
   <v>       0.00000000 </v>
   <v>       0.00000000 </v>
   <v>       0.00000000 </v>
   <v>       0.00000000 </v>
   <v>       0.00000000 </v>
   <v>       0.00000000 </v>
   <v>       0.00000000 </v>
   <v>       0.00000000 </v>
   <v>       0.00000000 </v>
   <v>       0.00000000 </v>
   <v>       0.00000000 </v>
   <v>       0.00000000 </v>
   <v>       0.00000000 </v>
   <v>       0.00000000 </v>
   <v>       0.00000000 </v>
   <v>       0.00000000 </v>
   <v>       0.00000000 </v>
   <v>       0.00000000 </v>
   <v>       0.00000000 </v>
   <v>       0.00000000 </v>
   <v>       0.00000000 </v>
   <v>       0.00000000 </v>
   <v>       0.00000000 </v>
   <v>       0.00000000 </v>
   <v>       0.00000000 </v>
   <v>       0.00000000 </v>
   <v>       0.00000000 </v>
   <v>       0.00000000 </v>
   <v>       0.00000000 </v>
   <v>       0.00000000 </v>
   <v>       0.00000000 </v>
   <v>       0.00000000 </v>
   <v>       0.00000000 </v>
   <v>       0.00000000 </v>
   <v>       0.00000000 </v>
   <v>       0.00000000 </v>
   <v>       0.00000000 </v>
   <v>       0.00000000 </v>
   <v>       0.00000000 </v>
   <v>       0.00000000 </v>
   <v>       0.00000000 </v>
   <v>       0.00000000 </v>
   <v>       0.00000000 </v>
   <v>       0.00000000 </v>
   <v>       0.00000000 </v>
   <v>       0.00000000 </v>
   <v>       0.00000000 </v>
   <v>       0.00000000 </v>
   <v>       0.00000000 </v>
   <v>       0.00000000 </v>
   <v>       0.00000000 </v>
   <v>       0.00000000 </v>
   <v>       0.00000000 </v>
   <v>       0.00000000 </v>
   <v>       0.00000000 </v>
   <v>       0.00000000 </v>
   <v>       0.00000000 </v>
   <v>       0.00000000 </v>
   <v>       0.00000000 </v>
   <v>       0.00000000 </v>
   <v>       0.00000000 </v>
   <v>       0.00000000 </v>
   <v>       0.00000000 </v>
   <v>       0.00000000 </v>
   <v>       0.00000000 </v>
   <v>       0.00000000 </v>
   <v>       0.00000000 </v>
   <v>       0.00000000 </v>
   <v>       0.00000000 </v>
   <v>       0.00000000 </v>
   <v>       0.00000000 </v>
   <v>       0.00000000 </v>
   <v>       0.00000000 </v>
   <v>       0.00000000 </v>
   <v>       0.00000000 </v>
   <v>       0.00000000 </v>
   <v>       0.00000000 </v>
   <v>       0.00000000 </v>
   <v>       0.00000000 </v>
   <v>       0.00000000 </v>
   <v>       0.00000000 </v>
   <v>       0.00000000 </v>
   <v>       0.00000000 </v>
   <v>       0.00000000 </v>
   <v>       0.00000000 </v>
   <v>       0.00000000 </v>
   <v>       0.00000000 </v>
   <v>       0.00000000 </v>
   <v>       0.00000000 </v>
   <v>       0.00000000 </v>
   <v>       0.00000000 </v>
   <v>       0.00000000 </v>
   <v>       0.00000000 </v>
   <v>       0.00000000 </v>
   <v>       0.00000000 </v>
   <v>       0.00000000 </v>
   <v>       0.00000000 </v>
   <v>       0.00000000 </v>
   <v>       0.00000000 </v>
   <v>       0.00000000 </v>
   <v>       0.00000000 </v>
   <v>       0.00000000 </v>
   <v>       0.00000000 </v>
   <v>       0.00000000 </v>
   <v>       0.00000000 </v>
   <v>       0.00000000 </v>
   <v>       0.00000000 </v>
   <v>       0.00000000 </v>
   <v>       0.00000000 </v>
   <v>       0.00000000 </v>
   <v>       0.00000000 </v>
   <v>       0.00000000 </v>
   <v>       0.00000000 </v>
   <v>       0.00000000 </v>
   <v>       0.00000000 </v>
   <v>       0.00000000 </v>
   <v>       0.00000000 </v>
   <v>       0.00000000 </v>
   <v>       0.00000000 </v>
   <v>       0.00000000 </v>
   <v>       0.00000000 </v>
   <v>       0.00000000 </v>
   <v>       0.00000000 </v>
   <v>       0.00000000 </v>
   <v>       0.00000000 </v>
   <v>       0.00000000 </v>
   <v>       0.00000000 </v>
   <v>       0.00000000 </v>
   <v>       0.00000000 </v>
   <v>       0.00000000 </v>
   <v>       0.00000000 </v>
   <v>       0.00000000 </v>
   <v>       0.00000000 </v>
   <v>       0.00000000 </v>
   <v>       0.00000000 </v>
   <v>       0.00000000 </v>
   <v>       0.00000000 </v>
   <v>       0.00000000 </v>
   <v>       0.00000000 </v>
   <v>       0.00000000 </v>
   <v>       0.00000000 </v>
   <v>       0.00000000 </v>
   <v>       0.00000000 </v>
   <v>       0.00000000 </v>
   <v>       0.00000000 </v>
   <v>       0.00000000 </v>
   <v>       0.00000000 </v>
   <v>       0.00000000 </v>
   <v>       0.00000000 </v>
   <v>       0.00000000 </v>
   <v>       0.00000000 </v>
   <v>       0.00000000 </v>
   <v>       0.00000000 </v>
   <v>       0.00000000 </v>
   <v>       0.00000000 </v>
   <v>       0.00000000 </v>
   <v>       0.00000000 </v>
   <v>       0.00000000 </v>
   <v>       0.00000000 </v>
   <v>       0.00000000 </v>
   <v>       0.00000000 </v>
   <v>       0.00000000 </v>
   <v>       0.00000000 </v>
   <v>       0.00000000 </v>
   <v>       0.00000000 </v>
   <v>       0.00000000 </v>
   <v>       0.00000000 </v>
   <v>       0.00000000 </v>
   <v>       0.00000000 </v>
   <v>       0.00000000 </v>
   <v>       0.00000000 </v>
   <v>       0.00000000 </v>
   <v>       0.00000000 </v>
   <v>       0.00000000 </v>
   <v>       0.00000000 </v>
   <v>       0.00000000 </v>
  </varray>
  <kpoints_labels>
   <i name="\Gamma" type="int">      21 </i>
   <i name="X" type="int">      54 </i>
   <i name="M" type="int">      87 </i>
   <i name="\Gamma" type="int">     134 </i>
   <i name="Z" type="int">     145 </i>
   <i name="R" type="int">     178 </i>
   <i name="A" type="int">     211 </i>
   <i name="Z" type="int">     258 </i>
   <i name="X" type="int">     259 </i>
   <i name="R" type="int">     270 </i>
   <i name="M" type="int">     271 </i>
   <i name="A" type="int">     282 </i>
  </kpoints_labels>
 </kpoints>
 <parameters>
  <separator name="general" >
   <i type="string" name="SYSTEM">Be4P3Rb</i>
   <i type="logical" name="LCOMPAT"> F  </i>
  </separator>
  <separator name="electronic" >
   <i type="string" name="PREC">accura</i>
   <i name="ENMAX">    400.00000000</i>
   <i name="ENAUG">    780.94400000</i>
   <i name="EDIFF">      0.00001000</i>
   <i type="int" name="IALGO">    38</i>
   <i type="int" name="IWAVPR">    10</i>
   <i type="int" name="NBANDS">    48</i>
   <i type="int" name="NBANDSLOW">    -1</i>
   <i type="int" name="NBANDSHIGH">    -1</i>
   <i name="NELECT">     40.00000000</i>
   <i type="int" name="TURBO">     0</i>
   <i type="int" name="IRESTART">     0</i>
   <i type="int" name="NREBOOT">     0</i>
   <i type="int" name="NMIN">     0</i>
   <i name="EREF">      0.00000000</i>
   <separator name="electronic smearing" >
    <i type="int" name="ISMEAR">     0</i>
    <i name="SIGMA">      0.01000000</i>
    <i name="KSPACING">      0.50000000</i>
    <i type="logical" name="KGAMMA"> T  </i>
    <i type="logical" name="KBLOWUP"> T  </i>
   </separator>
   <separator name="electronic projectors" >
    <i type="logical" name="LREAL"> F  </i>
    <v name="ROPT">      0.00000000      0.00000000      0.00000000</v>
    <i type="int" name="LMAXPAW">  -100</i>
    <i type="int" name="LMAXMIX">     2</i>
    <i type="logical" name="NLSPLINE"> F  </i>
   </separator>
   <separator name="electronic startup" >
    <i type="int" name="ISTART">     0</i>
    <i type="int" name="ICHARG">     2</i>
    <i type="int" name="INIWAV">     1</i>
   </separator>
   <separator name="electronic spin" >
    <i type="int" name="ISPIN">     1</i>
    <i type="logical" name="LNONCOLLINEAR"> F  </i>
    <v name="MAGMOM">      1.00000000      1.00000000      1.00000000      1.00000000      1.00000000      1.00000000      1.00000000      1.00000000</v>
    <i name="NUPDOWN">     -1.00000000</i>
    <i type="logical" name="LSORBIT"> F  </i>
    <v name="SAXIS">      0.00000000      0.00000000      1.00000000</v>
    <i type="logical" name="LSPIRAL"> F  </i>
    <v name="QSPIRAL">      0.00000000      0.00000000      0.00000000</v>
    <i type="logical" name="LZEROZ"> F  </i>
   </separator>
   <separator name="electronic exchange-correlation" >
    <i type="logical" name="LASPH"> F  </i>
    <i type="logical" name="LMETAGGA"> F  </i>
   </separator>
   <separator name="electronic convergence" >
    <i type="int" name="NELM">    90</i>
    <i type="int" name="NELMDL">     0</i>
    <i type="int" name="NELMIN">     2</i>
    <i name="ENINI">    400.00000000</i>
    <separator name="electronic convergence detail" >
     <i type="logical" name="LDIAG"> T  </i>
     <i type="logical" name="LSUBROT"> F  </i>
     <i name="WEIMIN">      0.00000000</i>
     <i name="EBREAK">      0.00000005</i>
     <i name="DEPER">      0.30000000</i>
     <i type="int" name="NRMM">     4</i>
     <i name="TIME">      0.40000000</i>
    </separator>
   </separator>
   <separator name="electronic mixer" >
    <i name="AMIX">      0.40000000</i>
    <i name="BMIX">      1.00000000</i>
    <i name="AMIN">      0.10000000</i>
    <i name="AMIX_MAG">      1.60000000</i>
    <i name="BMIX_MAG">      1.00000000</i>
    <separator name="electronic mixer details" >
     <i type="int" name="IMIX">     1</i>
     <i type="logical" name="MIXFIRST"> F  </i>
     <i type="int" name="MAXMIX">   -45</i>
     <i name="WC">    100.00000000</i>
     <i type="int" name="INIMIX">     1</i>
     <i type="int" name="MIXPRE">     1</i>
     <i type="int" name="MREMOVE">     5</i>
    </separator>
   </separator>
   <separator name="electronic dipolcorrection" >
    <i type="logical" name="LDIPOL"> F  </i>
    <i type="logical" name="LMONO"> F  </i>
    <i type="int" name="IDIPOL">     0</i>
    <i name="EPSILON">      1.00000000</i>
    <v name="DIPOL">   -100.00000000   -100.00000000   -100.00000000</v>
    <i name="EFIELD">      0.00000000</i>
   </separator>
  </separator>
  <separator name="grids" >
   <i type="int" name="NGX">    24</i>
   <i type="int" name="NGY">    24</i>
   <i type="int" name="NGZ">    64</i>
   <i type="int" name="NGXF">    48</i>
   <i type="int" name="NGYF">    48</i>
   <i type="int" name="NGZF">   128</i>
   <i type="logical" name="ADDGRID"> F  </i>
  </separator>
  <separator name="ionic" >
   <i type="int" name="NSW">     0</i>
   <i type="int" name="IBRION">    -1</i>
   <i type="int" name="MDALGO">     0</i>
   <i type="int" name="ISIF">     3</i>
   <i name="PSTRESS">      0.00000000</i>
   <i name="EDIFFG">     -0.01000000</i>
   <i type="int" name="NFREE">     1</i>
   <i name="POTIM">      0.50000000</i>
   <i name="SMASS">     -3.00000000</i>
   <i name="SCALEE">      1.00000000</i>
  </separator>
  <separator name="ionic md" >
   <i name="TEBEG">      0.00010000</i>
   <i name="TEEND">      0.00010000</i>
   <i type="int" name="NBLOCK">     1</i>
   <i type="int" name="KBLOCK">     1</i>
   <i type="int" name="NPACO">   256</i>
   <i name="APACO">     10.00000000</i>
  </separator>
  <separator name="symmetry" >
   <i type="int" name="ISYM">     3</i>
   <i name="SYMPREC">      0.00001000</i>
  </separator>
  <separator name="dos" >
   <i type="int" name="LORBIT">     0</i>
   <v name="RWIGS">     -1.00000000     -1.00000000     -1.00000000</v>
   <i type="int" name="NEDOS"> 10001</i>
   <i name="EMIN">     10.00000000</i>
   <i name="EMAX">    -10.00000000</i>
   <i name="EFERMI">      0.00000000</i>
  </separator>
  <separator name="writing" >
   <i type="int" name="NWRITE">     2</i>
   <i type="logical" name="LWAVE"> T  </i>
   <i type="logical" name="LDOWNSAMPLE"> F  </i>
   <i type="logical" name="LCHARG"> T  </i>
   <i type="logical" name="LPARD"> F  </i>
   <i type="logical" name="LVTOT"> F  </i>
   <i type="logical" name="LVHAR"> F  </i>
   <i type="logical" name="LELF"> F  </i>
   <i type="logical" name="LOPTICS"> F  </i>
   <v name="STM">      0.00000000      0.00000000      0.00000000      0.00000000      0.00000000      0.00000000      0.00000000</v>
  </separator>
  <separator name="performance" >
   <i type="int" name="NPAR">    24</i>
   <i type="int" name="NSIM">     4</i>
   <i type="int" name="NBLK">    -1</i>
   <i type="logical" name="LPLANE"> T  </i>
   <i type="logical" name="LSCALAPACK"> T  </i>
   <i type="logical" name="LSCAAWARE"> F  </i>
   <i type="logical" name="LSCALU"> F  </i>
   <i type="logical" name="LASYNC"> F  </i>
   <i type="logical" name="LORBITALREAL"> F  </i>
  </separator>
  <separator name="miscellaneous" >
   <i type="int" name="IDIOT">     3</i>
   <i type="int" name="PHON_NSTRUCT">    -1</i>
   <i type="logical" name="LMUSIC"> F  </i>
   <v name="POMASS">     85.46800000      9.01300000     30.97400000</v>
   <v name="DARWINR">      0.00000000      0.00000000      0.00000000</v>
   <v name="DARWINV">      1.00000000      1.00000000      1.00000000</v>
   <i type="logical" name="LCORR"> T  </i>
  </separator>
  <i type="logical" name="GGA_COMPAT"> T  </i>
  <i type="logical" name="LBERRY"> F  </i>
  <i type="int" name="ICORELEVEL">     0</i>
  <i type="logical" name="LDAU"> F  </i>
  <i type="int" name="I_CONSTRAINED_M">     0</i>
  <separator name="electronic exchange-correlation" >
   <i type="string" name="GGA">PE</i>
   <i type="int" name="VOSKOWN">     0</i>
   <i type="logical" name="LHFCALC"> T  </i>
   <i type="string" name="PRECFOCK">normal</i>
   <i type="logical" name="LSYMGRAD"> F  </i>
   <i type="logical" name="LHFONE"> F  </i>
   <i type="logical" name="LRHFCALC"> F  </i>
   <i type="logical" name="LTHOMAS"> F  </i>
   <i type="logical" name="LMODELHF"> F  </i>
   <i type="logical" name="LFOCKACE"> T  </i>
   <i name="ENCUT4O">     -1.00000000</i>
   <i type="int" name="EXXOEP">     0</i>
   <i type="int" name="FOURORBIT">     0</i>
   <i name="AEXX">      0.25000000</i>
   <i name="HFALPHA">     -1.00000000</i>
   <i name="MCALPHA">      0.00000000</i>
   <i name="ALDAX">      0.75000000</i>
   <i name="AGGAX">      0.75000000</i>
   <i name="ALDAC">      1.00000000</i>
   <i name="AGGAC">      1.00000000</i>
   <i type="int" name="NKREDX">     1</i>
   <i type="int" name="NKREDY">     1</i>
   <i type="int" name="NKREDZ">     1</i>
   <i type="logical" name="SHIFTRED"> F  </i>
   <i type="logical" name="ODDONLY"> F  </i>
   <i type="logical" name="EVENONLY"> F  </i>
   <i type="int" name="LMAXFOCK">     4</i>
   <i type="int" name="NMAXFOCKAE">     1</i>
   <i type="logical" name="LFOCKAEDFT"> F  </i>
   <i name="HFSCREEN">      0.20000000</i>
   <i name="HFSCREENC">      0.20000000</i>
   <i type="int" name="NBANDSGWLOW">     1</i>
  </separator>
  <separator name="vdW DFT" >
   <i type="logical" name="LUSE_VDW"> F  </i>
   <i name="Zab_VDW">     -0.84910000</i>
   <i name="PARAM1">      0.12340000</i>
   <i name="PARAM2">      1.00000000</i>
   <i name="PARAM3">      0.00000000</i>
  </separator>
  <separator name="model GW" >
   <i type="int" name="MODEL_GW">     0</i>
   <i name="MODEL_EPS0">      9.74626407</i>
   <i name="MODEL_ALPHA">      1.00000000</i>
  </separator>
  <separator name="linear response parameters" >
   <i type="logical" name="LEPSILON"> F  </i>
   <i type="logical" name="LRPA"> F  </i>
   <i type="logical" name="LNABLA"> F  </i>
   <i type="logical" name="LVEL"> F  </i>
   <i name="CSHIFT">      0.10000000</i>
   <i name="OMEGAMAX">     -1.00000000</i>
   <i name="DEG_THRESHOLD">      0.00200000</i>
   <i name="RTIME">     -0.10000000</i>
   <i name="WPLASMAI">      0.00000000</i>
   <v name="DFIELD">      0.00000000      0.00000000      0.00000000</v>
   <v name="WPLASMA">      0.00000000      0.00000000      0.00000000      0.00000000      0.00000000      0.00000000      0.00000000      0.00000000      0.00000000</v>
  </separator>
  <separator name="orbital magnetization" >
   <i type="logical" name="NUCIND"> F  </i>
   <v name="MAGPOS">      0.00000000      0.00000000      0.00000000</v>
   <i type="logical" name="LNICSALL"> T  </i>
   <i type="logical" name="ORBITALMAG"> F  </i>
   <i type="logical" name="LMAGBLOCH"> F  </i>
   <i type="logical" name="LCHIMAG"> F  </i>
   <i type="logical" name="LGAUGE"> T  </i>
   <i type="int" name="MAGATOM">     0</i>
   <v name="MAGDIPOL">      0.00000000      0.00000000      0.00000000</v>
   <v name="AVECCONST">      0.00000000      0.00000000      0.00000000</v>
  </separator>
  <separator name="response functions" >
   <i type="logical" name="LFINITE_TEMPERATURE"> F  </i>
   <i type="logical" name="LADDER"> F  </i>
   <i type="logical" name="LRPAFORCE"> F  </i>
   <i type="logical" name="LFXC"> F  </i>
   <i type="logical" name="LHARTREE"> T  </i>
   <i type="int" name="IBSE">     0</i>
   <v type="int" name="KPOINT">    -1     0     0     0</v>
   <i type="logical" name="LTCTC"> F  </i>
   <i type="logical" name="LTCTE"> F  </i>
   <i type="logical" name="LTETE"> F  </i>
   <i type="logical" name="LTRIPLET"> F  </i>
   <i type="logical" name="LFXCEPS"> F  </i>
   <i type="logical" name="LFXHEG"> F  </i>
   <i type="int" name="NATURALO">     2</i>
   <i type="logical" name="LHOLEGF"> F  </i>
   <i type="logical" name="L2ORDER"> F  </i>
   <i type="logical" name="LDMP1"> F  </i>
   <i type="logical" name="LMP2LT"> F  </i>
   <i type="logical" name="LSMP2LT"> F  </i>
   <i type="logical" name="LGWLF"> F  </i>
   <i name="ENCUTGW">     -2.00000000</i>
   <i name="ENCUTGWSOFT">     -2.00000000</i>
   <i name="ENCUTLF">     -1.00000000</i>
   <i type="logical" name="LESF_SPLINES"> F  </i>
   <i type="int" name="LMAXMP2">    -1</i>
   <i name="SCISSOR">      0.00000000</i>
   <i type="int" name="NOMEGA">     0</i>
   <i type="int" name="NOMEGAR">     0</i>
   <i type="int" name="NBANDSGW">    -1</i>
   <i type="int" name="NBANDSO">    -1</i>
   <i type="int" name="NBANDSV">    -1</i>
   <i type="int" name="NELMGW">     1</i>
   <i type="int" name="NELMHF">     1</i>
   <i type="int" name="DIM">     3</i>
   <i type="int" name="IESPILON">     4</i>
   <i type="int" name="ANTIRES">     0</i>
   <i name="OMEGAMAX">    -30.00000000</i>
   <i name="OMEGAMIN">    -30.00000000</i>
   <i name="OMEGATL">   -200.00000000</i>
   <i type="int" name="OMEGAGRID">     0</i>
   <i name="CSHIFT">     -0.10000000</i>
   <i type="logical" name="LSELFENERGY"> F  </i>
   <i type="logical" name="LSPECTRAL"> F  </i>
   <i type="logical" name="LSPECTRALGW"> F  </i>
   <i type="logical" name="LSINGLES"> F  </i>
   <i type="logical" name="LFERMIGW"> F  </i>
   <i type="logical" name="ODDONLYGW"> F  </i>
   <i type="logical" name="EVENONLYGW"> F  </i>
   <i type="int" name="NKREDLFX">     1</i>
   <i type="int" name="NKREDLFY">     1</i>
   <i type="int" name="NKREDLFZ">     1</i>
   <i type="int" name="MAXMEM">  2800</i>
   <i type="int" name="TELESCOPE">     0</i>
   <i type="int" name="NTAUPAR">    -1</i>
   <i type="int" name="NOMEGAPAR">    -1</i>
   <i name="DAMP_NEWTON">      0.80000001</i>
   <i name="LAMBDA">      1.00000000</i>
  </separator>
  <separator name="External order field" >
   <i name="OFIELD_KAPPA">      0.00000000</i>
   <v name="OFIELD_K">      0.00000000      0.00000000      0.00000000</v>
   <i name="OFIELD_Q6_NEAR">      0.00000000</i>
   <i name="OFIELD_Q6_FAR">      0.00000000</i>
   <i name="OFIELD_A">      0.00000000</i>
  </separator>
  <separator name="optional k-points parameters" >
   <i type="int" name="KPOINTS_OPT_MODE">     1</i>
   <i type="logical" name="LKPOINTS_OPT"> F  </i>
  </separator>
 </parameters>
 <atominfo>
  <atoms>       8 </atoms>
  <types>       3 </types>
  <array name="atoms" >
   <dimension dim="1">ion</dimension>
   <field type="string">element</field>
   <field type="int">atomtype</field>
   <set>
    <rc><c>Rb</c><c>   1</c></rc>
    <rc><c>Be</c><c>   2</c></rc>
    <rc><c>Be</c><c>   2</c></rc>
    <rc><c>Be</c><c>   2</c></rc>
    <rc><c>Be</c><c>   2</c></rc>
    <rc><c>P </c><c>   3</c></rc>
    <rc><c>P </c><c>   3</c></rc>
    <rc><c>P </c><c>   3</c></rc>
   </set>
  </array>
  <array name="atomtypes" >
   <dimension dim="1">type</dimension>
   <field type="int">atomspertype</field>
   <field type="string">element</field>
   <field>mass</field>
   <field>valence</field>
   <field type="string">pseudopotential</field>
   <set>
    <rc><c>   1</c><c>Rb</c><c>     85.46800000</c><c>      9.00000000</c><c>  PAW_PBE Rb_sv 06Sep2000               </c></rc>
    <rc><c>   4</c><c>Be</c><c>      9.01300000</c><c>      4.00000000</c><c>  PAW_PBE Be_sv 06Sep2000               </c></rc>
    <rc><c>   3</c><c>P </c><c>     30.97400000</c><c>      5.00000000</c><c>  PAW_PBE P 06Sep2000                   </c></rc>
   </set>
  </array>
 </atominfo>
 <structure name="initialpos" >
  <crystal>
   <varray name="basis" >
    <v>       3.64446899       0.00000000      -0.00000000 </v>
    <v>       0.00000000       3.64446899       0.00000000 </v>
    <v>       0.00000000       0.00000000       9.78381861 </v>
   </varray>
   <i name="volume">    129.95018760 </i>
   <varray name="rec_basis" >
    <v>       0.27438840       0.00000000       0.00000000 </v>
    <v>      -0.00000000       0.27438840       0.00000000 </v>
    <v>       0.00000000      -0.00000000       0.10220958 </v>
   </varray>
  </crystal>
  <varray name="positions" >
   <v>       0.00000000       0.00000000       0.50000000 </v>
   <v>       0.00000000       0.50000000       0.14297177 </v>
   <v>       0.00000000       0.50000000       0.85702823 </v>
   <v>       0.50000000       0.00000000       0.85702823 </v>
   <v>       0.50000000       0.00000000       0.14297177 </v>
   <v>       0.00000000       0.00000000       0.00000000 </v>
   <v>       0.50000000       0.50000000       0.26060231 </v>
   <v>       0.50000000       0.50000000       0.73939769 </v>
  </varray>
 </structure>
 <calculation>
  <scstep>
   <time name="dav">   20.00   13.09</time>
   <time name="total">   21.16   14.22</time>
   <energy>
    <i name="alphaZ">    109.49705624 </i>
    <i name="ewald">  -1572.65416475 </i>
    <i name="hartreedc">   -452.90696352 </i>
    <i name="XCdc">    108.76794538 </i>
    <i name="pawpsdc">   1464.19494518 </i>
    <i name="pawaedc">  -2619.65879499 </i>
    <i name="eentropy">     -0.00000000 </i>
    <i name="bandstr">   -684.23292639 </i>
    <i name="atom">   2778.36867015 </i>
    <i name="e_fr_energy">   -868.62423269 </i>
    <i name="e_wo_entrp">   -868.62423269 </i>
    <i name="e_0_energy">   -868.62423269 </i>
   </energy>
  </scstep>
  <scstep>
   <time name="dav">   19.54   12.64</time>
   <time name="total">   19.54   12.65</time>
   <energy>
    <i name="e_fr_energy">  -1082.86486131 </i>
    <i name="e_wo_entrp">  -1082.86486131 </i>
    <i name="e_0_energy">  -1082.86486131 </i>
   </energy>
  </scstep>
  <scstep>
   <time name="dav">   31.28   20.80</time>
   <time name="total">   31.28   20.81</time>
   <energy>
    <i name="e_fr_energy">  -1098.21941803 </i>
    <i name="e_wo_entrp">  -1098.21941803 </i>
    <i name="e_0_energy">  -1098.21941803 </i>
   </energy>
  </scstep>
  <scstep>
   <time name="dav">   21.26   13.86</time>
   <time name="total">   21.26   13.86</time>
   <energy>
    <i name="e_fr_energy">  -1098.59888394 </i>
    <i name="e_wo_entrp">  -1098.59888394 </i>
    <i name="e_0_energy">  -1098.59888394 </i>
   </energy>
  </scstep>
  <scstep>
   <time name="dav">   87.17   67.49</time>
   <time name="total">   87.47   67.77</time>
   <energy>
    <i name="e_fr_energy">    -40.44024587 </i>
    <i name="e_wo_entrp">    -40.44024587 </i>
    <i name="e_0_energy">    -40.44024587 </i>
   </energy>
  </scstep>
  <scstep>
   <time name="dav">   84.49   65.76</time>
   <time name="total">   84.79   66.04</time>
   <energy>
    <i name="e_fr_energy">    -39.31836368 </i>
    <i name="e_wo_entrp">    -39.31836368 </i>
    <i name="e_0_energy">    -39.31836368 </i>
   </energy>
  </scstep>
  <scstep>
   <time name="dav">   86.06   66.49</time>
   <time name="total">   86.35   66.76</time>
   <energy>
    <i name="e_fr_energy">    -39.17684304 </i>
    <i name="e_wo_entrp">    -39.17684304 </i>
    <i name="e_0_energy">    -39.17684304 </i>
   </energy>
  </scstep>
  <scstep>
   <time name="dav">   85.52   66.59</time>
   <time name="total">   85.81   66.88</time>
   <energy>
    <i name="e_fr_energy">    -39.14422267 </i>
    <i name="e_wo_entrp">    -39.14422267 </i>
    <i name="e_0_energy">    -39.14422267 </i>
   </energy>
  </scstep>
  <scstep>
   <time name="dav">   86.33   67.04</time>
   <time name="total">   86.62   67.31</time>
   <energy>
    <i name="e_fr_energy">    -39.12916600 </i>
    <i name="e_wo_entrp">    -39.12916600 </i>
    <i name="e_0_energy">    -39.12916600 </i>
   </energy>
  </scstep>
  <scstep>
   <time name="dav">   88.18   68.21</time>
   <time name="total">   88.47   68.49</time>
   <energy>
    <i name="e_fr_energy">    -39.12406986 </i>
    <i name="e_wo_entrp">    -39.12406986 </i>
    <i name="e_0_energy">    -39.12406986 </i>
   </energy>
  </scstep>
  <scstep>
   <time name="dav">   88.39   68.19</time>
   <time name="total">   88.68   68.47</time>
   <energy>
    <i name="e_fr_energy">    -39.12233422 </i>
    <i name="e_wo_entrp">    -39.12233422 </i>
    <i name="e_0_energy">    -39.12233422 </i>
   </energy>
  </scstep>
  <scstep>
   <time name="dav">   86.99   67.26</time>
   <time name="total">   87.29   67.54</time>
   <energy>
    <i name="e_fr_energy">    -39.12176395 </i>
    <i name="e_wo_entrp">    -39.12176395 </i>
    <i name="e_0_energy">    -39.12176395 </i>
   </energy>
  </scstep>
  <scstep>
   <time name="dav">   85.87   66.72</time>
   <time name="total">   86.16   67.00</time>
   <energy>
    <i name="e_fr_energy">    -39.12158893 </i>
    <i name="e_wo_entrp">    -39.12158893 </i>
    <i name="e_0_energy">    -39.12158893 </i>
   </energy>
  </scstep>
  <scstep>
   <time name="dav">   86.30   66.91</time>
   <time name="total">   86.59   67.19</time>
   <energy>
    <i name="e_fr_energy">    -39.12153746 </i>
    <i name="e_wo_entrp">    -39.12153746 </i>
    <i name="e_0_energy">    -39.12153746 </i>
   </energy>
  </scstep>
  <scstep>
   <time name="dav">   86.78   67.08</time>
   <time name="total">   87.07   67.36</time>
   <energy>
    <i name="e_fr_energy">    -39.12152380 </i>
    <i name="e_wo_entrp">    -39.12152380 </i>
    <i name="e_0_energy">    -39.12152380 </i>
   </energy>
  </scstep>
  <scstep>
   <time name="dav">   86.76   67.22</time>
   <time name="total">   86.87   67.31</time>
   <energy>
    <i name="alphaZ">    109.49705624 </i>
    <i name="ewald">  -1572.65416475 </i>
    <i name="hartreedc">   -465.63073019 </i>
    <i name="XCdc">     84.14020061 </i>
    <i name="pawpsdc">   4081.92041742 </i>
    <i name="pawaedc">  -4185.19764991 </i>
    <i name="eentropy">     -0.00000000 </i>
    <i name="bandstr">   -967.17183467 </i>
    <i name="atom">   2778.36867015 </i>
    <i name="e_fr_energy">    -39.12152125 </i>
    <i name="e_wo_entrp">    -39.12152125 </i>
    <i name="e_0_energy">    -39.12152125 </i>
   </energy>
  </scstep>
  <structure>
   <crystal>
    <varray name="basis" >
     <v>       3.64446899       0.00000000      -0.00000000 </v>
     <v>       0.00000000       3.64446899       0.00000000 </v>
     <v>       0.00000000       0.00000000       9.78381861 </v>
    </varray>
    <i name="volume">    129.95018760 </i>
    <varray name="rec_basis" >
     <v>       0.27438840       0.00000000       0.00000000 </v>
     <v>      -0.00000000       0.27438840       0.00000000 </v>
     <v>       0.00000000      -0.00000000       0.10220958 </v>
    </varray>
   </crystal>
   <varray name="positions" >
    <v>       0.00000000       0.00000000       0.50000000 </v>
    <v>       0.00000000       0.50000000       0.14297177 </v>
    <v>       0.00000000       0.50000000       0.85702823 </v>
    <v>       0.50000000       0.00000000       0.85702823 </v>
    <v>       0.50000000       0.00000000       0.14297177 </v>
    <v>       0.00000000       0.00000000       0.00000000 </v>
    <v>       0.50000000       0.50000000       0.26060231 </v>
    <v>       0.50000000       0.50000000       0.73939769 </v>
   </varray>
  </structure>
  <varray name="forces" >
   <v>              NaN              NaN              NaN </v>
   <v>              NaN              NaN              NaN </v>
   <v>              NaN              NaN              NaN </v>
   <v>              NaN              NaN              NaN </v>
   <v>              NaN              NaN              NaN </v>
   <v>              NaN              NaN              NaN </v>
   <v>              NaN              NaN              NaN </v>
   <v>              NaN              NaN              NaN </v>
  </varray>
  <varray name="stress" >
   <v>              NaN              NaN              NaN </v>
   <v>              NaN              NaN              NaN </v>
   <v>              NaN              NaN              NaN </v>
  </varray>
  <energy>
   <i name="e_fr_energy">    -39.12152125 </i>
   <i name="e_wo_entrp">    -39.12152125 </i>
   <i name="e_0_energy">    -39.12152125 </i>
  </energy>
  <time name="totalsc"> 1293.38 1022.47</time>
  <eigenvalues>
   <array>
    <dimension dim="1">band</dimension>
    <dimension dim="2">kpoint</dimension>
    <dimension dim="3">spin</dimension>
    <field>eigene</field>
    <field>occ</field>
    <set>
     <set comment="spin 1">
      <set comment="kpoint 1">
       <r> -102.0125    1.0000 </r>
       <r> -102.0122    1.0000 </r>
       <r> -102.0076    1.0000 </r>
       <r> -102.0071    1.0000 </r>
       <r>  -25.7011    1.0000 </r>
       <r>  -10.6298    1.0000 </r>
       <r>   -9.4353    1.0000 </r>
       <r>   -8.2553    1.0000 </r>
       <r>   -8.2553    1.0000 </r>
       <r>   -7.9221    1.0000 </r>
       <r>   -7.6343    1.0000 </r>
       <r>   -1.7454    1.0000 </r>
       <r>   -0.4061    1.0000 </r>
       <r>   -0.4061    1.0000 </r>
       <r>    0.6618    1.0000 </r>
       <r>    1.2665    1.0000 </r>
       <r>    1.2665    1.0000 </r>
       <r>    3.1744    1.0000 </r>
       <r>    3.6243    1.0000 </r>
       <r>    3.6243    1.0000 </r>
       <r>    5.2112    0.0000 </r>
       <r>    5.2364    0.0000 </r>
       <r>    7.1710    0.0000 </r>
       <r>    7.5643    0.0000 </r>
       <r>    8.0771    0.0000 </r>
       <r>    8.2070    0.0000 </r>
       <r>    8.6502    0.0000 </r>
       <r>    8.6502    0.0000 </r>
       <r>    9.4147    0.0000 </r>
       <r>    9.7698    0.0000 </r>
       <r>   11.9544    0.0000 </r>
       <r>   11.9544    0.0000 </r>
       <r>   12.3466    0.0000 </r>
       <r>   12.3466    0.0000 </r>
       <r>   13.7703    0.0000 </r>
       <r>   13.7876    0.0000 </r>
       <r>   13.9188    0.0000 </r>
       <r>   14.1874    0.0000 </r>
       <r>   14.5273    0.0000 </r>
       <r>   14.5273    0.0000 </r>
       <r>   15.0404    0.0000 </r>
       <r>   15.2620    0.0000 </r>
       <r>   15.9486    0.0000 </r>
       <r>   15.9486    0.0000 </r>
       <r>   16.2194    0.0000 </r>
       <r>   18.0235    0.0000 </r>
       <r>   18.3061    0.0000 </r>
       <r>   18.3902    0.0000 </r>
      </set>
      <set comment="kpoint 2">
       <r> -102.0122    1.0000 </r>
       <r> -102.0119    1.0000 </r>
       <r> -102.0078    1.0000 </r>
       <r> -102.0074    1.0000 </r>
       <r>  -25.6852    1.0000 </r>
       <r>  -10.4582    1.0000 </r>
       <r>   -9.3051    1.0000 </r>
       <r>   -8.5124    1.0000 </r>
       <r>   -8.2372    1.0000 </r>
       <r>   -7.8890    1.0000 </r>
       <r>   -7.5033    1.0000 </r>
       <r>   -1.8820    1.0000 </r>
       <r>   -1.4681    1.0000 </r>
       <r>   -0.2134    1.0000 </r>
       <r>    0.5415    1.0000 </r>
       <r>    1.0329    1.0000 </r>
       <r>    1.4369    1.0000 </r>
       <r>    2.3392    1.0000 </r>
       <r>    3.1986    1.0000 </r>
       <r>    3.5282    1.0000 </r>
       <r>    5.4881    0.0000 </r>
       <r>    6.5785    0.0000 </r>
       <r>    7.7352    0.0000 </r>
       <r>    7.7451    0.0000 </r>
       <r>    8.2788    0.0000 </r>
       <r>    8.4981    0.0000 </r>
       <r>    8.5734    0.0000 </r>
       <r>    9.2693    0.0000 </r>
       <r>    9.9055    0.0000 </r>
       <r>   10.2409    0.0000 </r>
       <r>   11.0484    0.0000 </r>
       <r>   11.2266    0.0000 </r>
       <r>   11.6206    0.0000 </r>
       <r>   11.8828    0.0000 </r>
       <r>   12.7281    0.0000 </r>
       <r>   13.4228    0.0000 </r>
       <r>   13.8205    0.0000 </r>
       <r>   14.0981    0.0000 </r>
       <r>   14.7824    0.0000 </r>
       <r>   15.0875    0.0000 </r>
       <r>   15.4253    0.0000 </r>
       <r>   15.7233    0.0000 </r>
       <r>   16.1119    0.0000 </r>
       <r>   16.3819    0.0000 </r>
       <r>   16.9397    0.0000 </r>
       <r>   17.1172    0.0000 </r>
       <r>   17.4339    0.0000 </r>
       <r>   17.5614    0.0000 </r>
      </set>
      <set comment="kpoint 3">
       <r> -102.0116    1.0000 </r>
       <r> -102.0112    1.0000 </r>
       <r> -102.0086    1.0000 </r>
       <r> -102.0081    1.0000 </r>
       <r>  -25.6490    1.0000 </r>
       <r>   -9.9794    1.0000 </r>
       <r>   -8.9704    1.0000 </r>
       <r>   -8.9650    1.0000 </r>
       <r>   -8.1962    1.0000 </r>
       <r>   -7.8134    1.0000 </r>
       <r>   -7.4152    1.0000 </r>
       <r>   -2.7682    1.0000 </r>
       <r>   -2.5796    1.0000 </r>
       <r>    0.1113    1.0000 </r>
       <r>    0.1831    1.0000 </r>
       <r>    0.3396    1.0000 </r>
       <r>    1.8053    1.0000 </r>
       <r>    1.8877    1.0000 </r>
       <r>    2.5361    1.0000 </r>
       <r>    3.1354    1.0000 </r>
       <r>    5.9466    0.0000 </r>
       <r>    7.7306    0.0000 </r>
       <r>    7.9742    0.0000 </r>
       <r>    8.0898    0.0000 </r>
       <r>    8.2893    0.0000 </r>
       <r>    8.6515    0.0000 </r>
       <r>    9.3537    0.0000 </r>
       <r>    9.8308    0.0000 </r>
       <r>   10.4016    0.0000 </r>
       <r>   10.8020    0.0000 </r>
       <r>   10.8234    0.0000 </r>
       <r>   11.1131    0.0000 </r>
       <r>   11.6033    0.0000 </r>
       <r>   11.7272    0.0000 </r>
       <r>   12.0589    0.0000 </r>
       <r>   13.2590    0.0000 </r>
       <r>   13.6144    0.0000 </r>
       <r>   13.8725    0.0000 </r>
       <r>   14.4097    0.0000 </r>
       <r>   14.4370    0.0000 </r>
       <r>   15.0224    0.0000 </r>
       <r>   15.4095    0.0000 </r>
       <r>   15.7833    0.0000 </r>
       <r>   16.6912    0.0000 </r>
       <r>   17.2684    0.0000 </r>
       <r>   17.3209    0.0000 </r>
       <r>   18.0727    0.0000 </r>
       <r>   18.6904    0.0000 </r>
      </set>
      <set comment="kpoint 4">
       <r> -102.0106    1.0000 </r>
       <r> -102.0102    1.0000 </r>
       <r> -102.0096    1.0000 </r>
       <r> -102.0090    1.0000 </r>
       <r>  -25.6196    1.0000 </r>
       <r>   -9.4348    1.0000 </r>
       <r>   -9.2209    1.0000 </r>
       <r>   -8.6390    1.0000 </r>
       <r>   -8.1628    1.0000 </r>
       <r>   -7.7525    1.0000 </r>
       <r>   -7.6812    1.0000 </r>
       <r>   -3.3671    1.0000 </r>
       <r>   -3.1761    1.0000 </r>
       <r>   -1.2247    1.0000 </r>
       <r>    0.4851    1.0000 </r>
       <r>    1.1241    1.0000 </r>
       <r>    1.6173    1.0000 </r>
       <r>    2.2253    1.0000 </r>
       <r>    2.3615    1.0000 </r>
       <r>    2.4060    1.0000 </r>
       <r>    6.4243    0.0000 </r>
       <r>    7.1216    0.0000 </r>
       <r>    7.3950    0.0000 </r>
       <r>    8.0371    0.0000 </r>
       <r>    8.2750    0.0000 </r>
       <r>    8.6230    0.0000 </r>
       <r>    9.3006    0.0000 </r>
       <r>   10.4082    0.0000 </r>
       <r>   10.9364    0.0000 </r>
       <r>   11.0515    0.0000 </r>
       <r>   11.2811    0.0000 </r>
       <r>   11.5610    0.0000 </r>
       <r>   11.6276    0.0000 </r>
       <r>   12.2652    0.0000 </r>
       <r>   12.4967    0.0000 </r>
       <r>   12.7958    0.0000 </r>
       <r>   13.1648    0.0000 </r>
       <r>   13.7726    0.0000 </r>
       <r>   14.1985    0.0000 </r>
       <r>   15.3660    0.0000 </r>
       <r>   15.7450    0.0000 </r>
       <r>   15.8965    0.0000 </r>
       <r>   17.0452    0.0000 </r>
       <r>   17.5008    0.0000 </r>
       <r>   17.5970    0.0000 </r>
       <r>   17.7444    0.0000 </r>
       <r>   17.9430    0.0000 </r>
       <r>   18.2624    0.0000 </r>
      </set>
      <set comment="kpoint 5">
       <r> -102.0120    1.0000 </r>
       <r> -102.0117    1.0000 </r>
       <r> -102.0081    1.0000 </r>
       <r> -102.0076    1.0000 </r>
       <r>  -25.6694    1.0000 </r>
       <r>  -10.2882    1.0000 </r>
       <r>   -9.1835    1.0000 </r>
       <r>   -8.5372    1.0000 </r>
       <r>   -8.4126    1.0000 </r>
       <r>   -7.8489    1.0000 </r>
       <r>   -7.4050    1.0000 </r>
       <r>   -1.9451    1.0000 </r>
       <r>   -1.3625    1.0000 </r>
       <r>   -1.1596    1.0000 </r>
       <r>    0.6364    1.0000 </r>
       <r>    0.6623    1.0000 </r>
       <r>    1.2765    1.0000 </r>
       <r>    2.3394    1.0000 </r>
       <r>    2.3502    1.0000 </r>
       <r>    3.3005    1.0000 </r>
       <r>    6.8519    0.0000 </r>
       <r>    6.8763    0.0000 </r>
       <r>    7.5766    0.0000 </r>
       <r>    8.1799    0.0000 </r>
       <r>    8.4741    0.0000 </r>
       <r>    8.4897    0.0000 </r>
       <r>    9.3323    0.0000 </r>
       <r>    9.3851    0.0000 </r>
       <r>    9.8884    0.0000 </r>
       <r>   10.2725    0.0000 </r>
       <r>   10.2858    0.0000 </r>
       <r>   11.3491    0.0000 </r>
       <r>   11.7177    0.0000 </r>
       <r>   12.0795    0.0000 </r>
       <r>   12.3468    0.0000 </r>
       <r>   13.0681    0.0000 </r>
       <r>   13.5671    0.0000 </r>
       <r>   14.0897    0.0000 </r>
       <r>   14.2668    0.0000 </r>
       <r>   14.5947    0.0000 </r>
       <r>   15.1654    0.0000 </r>
       <r>   15.4036    0.0000 </r>
       <r>   16.0584    0.0000 </r>
       <r>   17.2422    0.0000 </r>
       <r>   17.4077    0.0000 </r>
       <r>   18.1061    0.0000 </r>
       <r>   18.4903    0.0000 </r>
       <r>   18.6781    0.0000 </r>
      </set>
      <set comment="kpoint 6">
       <r> -102.0115    1.0000 </r>
       <r> -102.0110    1.0000 </r>
       <r> -102.0087    1.0000 </r>
       <r> -102.0082    1.0000 </r>
       <r>  -25.6336    1.0000 </r>
       <r>   -9.8155    1.0000 </r>
       <r>   -8.9200    1.0000 </r>
       <r>   -8.8788    1.0000 </r>
       <r>   -8.3940    1.0000 </r>
       <r>   -7.7466    1.0000 </r>
       <r>   -7.3383    1.0000 </r>
       <r>   -2.5900    1.0000 </r>
       <r>   -2.4742    1.0000 </r>
       <r>   -0.7157    1.0000 </r>
       <r>    0.1159    1.0000 </r>
       <r>    0.2464    1.0000 </r>
       <r>    0.9234    1.0000 </r>
       <r>    1.8987    1.0000 </r>
       <r>    2.0962    1.0000 </r>
       <r>    2.7045    1.0000 </r>
       <r>    7.3118    0.0000 </r>
       <r>    7.3158    0.0000 </r>
       <r>    7.7627    0.0000 </r>
       <r>    8.0332    0.0000 </r>
       <r>    8.6652    0.0000 </r>
       <r>    9.1995    0.0000 </r>
       <r>    9.5139    0.0000 </r>
       <r>    9.7342    0.0000 </r>
       <r>   10.1821    0.0000 </r>
       <r>   10.7829    0.0000 </r>
       <r>   11.0116    0.0000 </r>
       <r>   11.3572    0.0000 </r>
       <r>   11.7618    0.0000 </r>
       <r>   12.1911    0.0000 </r>
       <r>   12.2531    0.0000 </r>
       <r>   12.6165    0.0000 </r>
       <r>   13.3605    0.0000 </r>
       <r>   13.8690    0.0000 </r>
       <r>   14.0075    0.0000 </r>
       <r>   14.3350    0.0000 </r>
       <r>   15.2394    0.0000 </r>
       <r>   15.7575    0.0000 </r>
       <r>   16.5408    0.0000 </r>
       <r>   17.4231    0.0000 </r>
       <r>   17.6957    0.0000 </r>
       <r>   18.5389    0.0000 </r>
       <r>   18.6211    0.0000 </r>
       <r>   18.8516    0.0000 </r>
      </set>
      <set comment="kpoint 7">
       <r> -102.0106    1.0000 </r>
       <r> -102.0101    1.0000 </r>
       <r> -102.0096    1.0000 </r>
       <r> -102.0091    1.0000 </r>
       <r>  -25.6046    1.0000 </r>
       <r>   -9.3342    1.0000 </r>
       <r>   -9.1092    1.0000 </r>
       <r>   -8.5963    1.0000 </r>
       <r>   -8.3442    1.0000 </r>
       <r>   -7.6384    1.0000 </r>
       <r>   -7.5876    1.0000 </r>
       <r>   -3.2013    1.0000 </r>
       <r>   -3.0649    1.0000 </r>
       <r>   -1.1503    1.0000 </r>
       <r>    0.1015    1.0000 </r>
       <r>    0.5408    1.0000 </r>
       <r>    1.1371    1.0000 </r>
       <r>    1.3806    1.0000 </r>
       <r>    1.7661    1.0000 </r>
       <r>    2.2351    1.0000 </r>
       <r>    6.7388    0.0000 </r>
       <r>    7.6850    0.0000 </r>
       <r>    7.9759    0.0000 </r>
       <r>    8.1152    0.0000 </r>
       <r>    8.2983    0.0000 </r>
       <r>    9.2116    0.0000 </r>
       <r>    9.3114    0.0000 </r>
       <r>    9.4688    0.0000 </r>
       <r>   10.4855    0.0000 </r>
       <r>   10.5018    0.0000 </r>
       <r>   10.8535    0.0000 </r>
       <r>   11.0922    0.0000 </r>
       <r>   12.5587    0.0000 </r>
       <r>   12.9378    0.0000 </r>
       <r>   13.6425    0.0000 </r>
       <r>   13.7763    0.0000 </r>
       <r>   13.9704    0.0000 </r>
       <r>   14.2036    0.0000 </r>
       <r>   14.5712    0.0000 </r>
       <r>   14.7554    0.0000 </r>
       <r>   15.6603    0.0000 </r>
       <r>   16.2507    0.0000 </r>
       <r>   16.6492    0.0000 </r>
       <r>   17.1744    0.0000 </r>
       <r>   17.6116    0.0000 </r>
       <r>   17.7057    0.0000 </r>
       <r>   18.0898    0.0000 </r>
       <r>   18.6680    0.0000 </r>
      </set>
      <set comment="kpoint 8">
       <r> -102.0111    1.0000 </r>
       <r> -102.0106    1.0000 </r>
       <r> -102.0092    1.0000 </r>
       <r> -102.0086    1.0000 </r>
       <r>  -25.5987    1.0000 </r>
       <r>   -9.3698    1.0000 </r>
       <r>   -8.8532    1.0000 </r>
       <r>   -8.7477    1.0000 </r>
       <r>   -8.6695    1.0000 </r>
       <r>   -7.5571    1.0000 </r>
       <r>   -7.2421    1.0000 </r>
       <r>   -2.3824    1.0000 </r>
       <r>   -2.3163    1.0000 </r>
       <r>   -1.9535    1.0000 </r>
       <r>   -0.3991    1.0000 </r>
       <r>   -0.0822    1.0000 </r>
       <r>    0.5107    1.0000 </r>
       <r>    0.9160    1.0000 </r>
       <r>    1.6656    1.0000 </r>
       <r>    2.1306    1.0000 </r>
       <r>    6.9728    0.0000 </r>
       <r>    7.0564    0.0000 </r>
       <r>    7.0592    0.0000 </r>
       <r>    7.9606    0.0000 </r>
       <r>    9.4266    0.0000 </r>
       <r>    9.7178    0.0000 </r>
       <r>   10.1758    0.0000 </r>
       <r>   10.4591    0.0000 </r>
       <r>   11.1032    0.0000 </r>
       <r>   11.2751    0.0000 </r>
       <r>   11.4282    0.0000 </r>
       <r>   11.4410    0.0000 </r>
       <r>   11.8157    0.0000 </r>
       <r>   11.8189    0.0000 </r>
       <r>   12.2280    0.0000 </r>
       <r>   12.7649    0.0000 </r>
       <r>   13.5191    0.0000 </r>
       <r>   14.1230    0.0000 </r>
       <r>   14.8171    0.0000 </r>
       <r>   15.1788    0.0000 </r>
       <r>   16.1256    0.0000 </r>
       <r>   16.4316    0.0000 </r>
       <r>   16.9540    0.0000 </r>
       <r>   16.9948    0.0000 </r>
       <r>   17.5762    0.0000 </r>
       <r>   19.0054    0.0000 </r>
       <r>   19.2582    0.0000 </r>
       <r>   19.3164    0.0000 </r>
      </set>
      <set comment="kpoint 9">
       <r> -102.0105    1.0000 </r>
       <r> -102.0099    1.0000 </r>
       <r> -102.0098    1.0000 </r>
       <r> -102.0092    1.0000 </r>
       <r>  -25.5704    1.0000 </r>
       <r>   -9.1481    1.0000 </r>
       <r>   -8.7736    1.0000 </r>
       <r>   -8.7036    1.0000 </r>
       <r>   -8.5035    1.0000 </r>
       <r>   -7.3608    1.0000 </r>
       <r>   -7.3400    1.0000 </r>
       <r>   -2.8839    1.0000 </r>
       <r>   -2.7294    1.0000 </r>
       <r>   -1.8406    1.0000 </r>
       <r>   -0.5564    1.0000 </r>
       <r>   -0.2391    1.0000 </r>
       <r>    0.2874    1.0000 </r>
       <r>    0.4562    1.0000 </r>
       <r>    1.2808    1.0000 </r>
       <r>    1.5435    1.0000 </r>
       <r>    6.4629    0.0000 </r>
       <r>    6.5360    0.0000 </r>
       <r>    7.3581    0.0000 </r>
       <r>    7.3657    0.0000 </r>
       <r>    9.2256    0.0000 </r>
       <r>    9.5694    0.0000 </r>
       <r>    9.8683    0.0000 </r>
       <r>   10.0376    0.0000 </r>
       <r>   10.8828    0.0000 </r>
       <r>   11.7445    0.0000 </r>
       <r>   11.8656    0.0000 </r>
       <r>   12.0582    0.0000 </r>
       <r>   12.3492    0.0000 </r>
       <r>   12.3789    0.0000 </r>
       <r>   14.2382    0.0000 </r>
       <r>   14.5484    0.0000 </r>
       <r>   14.7368    0.0000 </r>
       <r>   15.0307    0.0000 </r>
       <r>   15.4589    0.0000 </r>
       <r>   15.6640    0.0000 </r>
       <r>   16.0526    0.0000 </r>
       <r>   16.7290    0.0000 </r>
       <r>   16.9058    0.0000 </r>
       <r>   17.1463    0.0000 </r>
       <r>   17.6575    0.0000 </r>
       <r>   18.1466    0.0000 </r>
       <r>   18.6048    0.0000 </r>
       <r>   18.8021    0.0000 </r>
      </set>
      <set comment="kpoint 10">
       <r> -102.0103    1.0000 </r>
       <r> -102.0101    1.0000 </r>
       <r> -102.0096    1.0000 </r>
       <r> -102.0094    1.0000 </r>
       <r>  -25.5428    1.0000 </r>
       <r>   -9.0291    1.0000 </r>
       <r>   -9.0003    1.0000 </r>
       <r>   -8.4313    1.0000 </r>
       <r>   -8.3336    1.0000 </r>
       <r>   -7.1738    1.0000 </r>
       <r>   -7.0428    1.0000 </r>
       <r>   -2.9978    1.0000 </r>
       <r>   -2.7886    1.0000 </r>
       <r>   -2.1488    1.0000 </r>
       <r>   -1.0342    1.0000 </r>
       <r>   -0.4655    1.0000 </r>
       <r>   -0.3854    1.0000 </r>
       <r>    0.1420    1.0000 </r>
       <r>    0.7079    1.0000 </r>
       <r>    1.4341    1.0000 </r>
       <r>    5.3680    0.0000 </r>
       <r>    6.5400    0.0000 </r>
       <r>    6.6068    0.0000 </r>
       <r>    6.6630    0.0000 </r>
       <r>    8.9448    0.0000 </r>
       <r>    9.8933    0.0000 </r>
       <r>   10.5440    0.0000 </r>
       <r>   10.6825    0.0000 </r>
       <r>   10.7034    0.0000 </r>
       <r>   11.0772    0.0000 </r>
       <r>   12.1579    0.0000 </r>
       <r>   13.3697    0.0000 </r>
       <r>   13.3814    0.0000 </r>
       <r>   14.0173    0.0000 </r>
       <r>   14.3330    0.0000 </r>
       <r>   15.1572    0.0000 </r>
       <r>   15.5356    0.0000 </r>
       <r>   16.1514    0.0000 </r>
       <r>   16.4200    0.0000 </r>
       <r>   16.6344    0.0000 </r>
       <r>   16.8990    0.0000 </r>
       <r>   17.1151    0.0000 </r>
       <r>   17.3847    0.0000 </r>
       <r>   17.6917    0.0000 </r>
       <r>   18.1445    0.0000 </r>
       <r>   18.1478    0.0000 </r>
       <r>   18.6416    0.0000 </r>
       <r>   19.8248    0.0000 </r>
      </set>
      <set comment="kpoint 11">
       <r> -102.0124    1.0000 </r>
       <r> -102.0122    1.0000 </r>
       <r> -102.0076    1.0000 </r>
       <r> -102.0071    1.0000 </r>
       <r>  -25.7011    1.0000 </r>
       <r>  -10.6625    1.0000 </r>
       <r>   -9.1850    1.0000 </r>
       <r>   -8.5236    1.0000 </r>
       <r>   -8.2553    1.0000 </r>
       <r>   -8.2553    1.0000 </r>
       <r>   -7.2057    1.0000 </r>
       <r>   -1.9715    1.0000 </r>
       <r>   -0.4137    1.0000 </r>
       <r>   -0.4137    1.0000 </r>
       <r>    1.2625    1.0000 </r>
       <r>    1.2947    1.0000 </r>
       <r>    1.2947    1.0000 </r>
       <r>    2.5844    1.0000 </r>
       <r>    3.5818    1.0000 </r>
       <r>    3.5818    1.0000 </r>
       <r>    5.2120    0.0000 </r>
       <r>    5.4823    0.0000 </r>
       <r>    7.0997    0.0000 </r>
       <r>    7.1254    0.0000 </r>
       <r>    7.6317    0.0000 </r>
       <r>    8.7771    0.0000 </r>
       <r>    8.7771    0.0000 </r>
       <r>    9.1003    0.0000 </r>
       <r>    9.7238    0.0000 </r>
       <r>    9.9768    0.0000 </r>
       <r>   11.2970    0.0000 </r>
       <r>   11.2970    0.0000 </r>
       <r>   12.5137    0.0000 </r>
       <r>   13.2055    0.0000 </r>
       <r>   13.2055    0.0000 </r>
       <r>   14.0106    0.0000 </r>
       <r>   14.0967    0.0000 </r>
       <r>   14.3146    0.0000 </r>
       <r>   14.5582    0.0000 </r>
       <r>   14.5582    0.0000 </r>
       <r>   14.7379    0.0000 </r>
       <r>   15.3286    0.0000 </r>
       <r>   15.3286    0.0000 </r>
       <r>   15.8809    0.0000 </r>
       <r>   16.5931    0.0000 </r>
       <r>   17.5125    0.0000 </r>
       <r>   17.7970    0.0000 </r>
       <r>   18.4491    0.0000 </r>
      </set>
      <set comment="kpoint 12">
       <r> -102.0122    1.0000 </r>
       <r> -102.0119    1.0000 </r>
       <r> -102.0079    1.0000 </r>
       <r> -102.0074    1.0000 </r>
       <r>  -25.6852    1.0000 </r>
       <r>  -10.4878    1.0000 </r>
       <r>   -9.0858    1.0000 </r>
       <r>   -8.6299    1.0000 </r>
       <r>   -8.2372    1.0000 </r>
       <r>   -8.2283    1.0000 </r>
       <r>   -7.2125    1.0000 </r>
       <r>   -1.9867    1.0000 </r>
       <r>   -1.4023    1.0000 </r>
       <r>   -0.2198    1.0000 </r>
       <r>    0.3070    1.0000 </r>
       <r>    1.4283    1.0000 </r>
       <r>    1.4599    1.0000 </r>
       <r>    2.4425    1.0000 </r>
       <r>    2.9261    1.0000 </r>
       <r>    3.5004    1.0000 </r>
       <r>    5.6136    0.0000 </r>
       <r>    6.6729    0.0000 </r>
       <r>    7.1141    0.0000 </r>
       <r>    7.9183    0.0000 </r>
       <r>    8.0155    0.0000 </r>
       <r>    8.3663    0.0000 </r>
       <r>    8.6061    0.0000 </r>
       <r>    9.7933    0.0000 </r>
       <r>   10.1896    0.0000 </r>
       <r>   10.5186    0.0000 </r>
       <r>   10.7198    0.0000 </r>
       <r>   11.1160    0.0000 </r>
       <r>   12.1980    0.0000 </r>
       <r>   12.4827    0.0000 </r>
       <r>   12.9813    0.0000 </r>
       <r>   13.0486    0.0000 </r>
       <r>   13.3554    0.0000 </r>
       <r>   14.0467    0.0000 </r>
       <r>   14.2750    0.0000 </r>
       <r>   14.4484    0.0000 </r>
       <r>   14.4661    0.0000 </r>
       <r>   15.5077    0.0000 </r>
       <r>   16.3621    0.0000 </r>
       <r>   16.8422    0.0000 </r>
       <r>   17.2079    0.0000 </r>
       <r>   17.4720    0.0000 </r>
       <r>   17.7867    0.0000 </r>
       <r>   18.2534    0.0000 </r>
      </set>
      <set comment="kpoint 13">
       <r> -102.0116    1.0000 </r>
       <r> -102.0112    1.0000 </r>
       <r> -102.0086    1.0000 </r>
       <r> -102.0081    1.0000 </r>
       <r>  -25.6490    1.0000 </r>
       <r>   -9.9937    1.0000 </r>
       <r>   -9.0573    1.0000 </r>
       <r>   -8.7888    1.0000 </r>
       <r>   -8.1961    1.0000 </r>
       <r>   -7.9553    1.0000 </r>
       <r>   -7.3604    1.0000 </r>
       <r>   -2.6976    1.0000 </r>
       <r>   -2.5600    1.0000 </r>
       <r>   -0.1832    1.0000 </r>
       <r>    0.1954    1.0000 </r>
       <r>    0.3366    1.0000 </r>
       <r>    1.8944    1.0000 </r>
       <r>    2.1322    1.0000 </r>
       <r>    2.5322    1.0000 </r>
       <r>    3.1360    1.0000 </r>
       <r>    6.0275    0.0000 </r>
       <r>    6.9788    0.0000 </r>
       <r>    7.9328    0.0000 </r>
       <r>    8.0691    0.0000 </r>
       <r>    8.1439    0.0000 </r>
       <r>    9.2741    0.0000 </r>
       <r>    9.7908    0.0000 </r>
       <r>    9.7911    0.0000 </r>
       <r>   10.1181    0.0000 </r>
       <r>   10.4930    0.0000 </r>
       <r>   11.0472    0.0000 </r>
       <r>   11.1024    0.0000 </r>
       <r>   11.9960    0.0000 </r>
       <r>   12.2438    0.0000 </r>
       <r>   12.4493    0.0000 </r>
       <r>   12.6877    0.0000 </r>
       <r>   13.1519    0.0000 </r>
       <r>   13.7681    0.0000 </r>
       <r>   14.0910    0.0000 </r>
       <r>   14.2523    0.0000 </r>
       <r>   14.6627    0.0000 </r>
       <r>   15.9689    0.0000 </r>
       <r>   16.3976    0.0000 </r>
       <r>   16.5655    0.0000 </r>
       <r>   16.8630    0.0000 </r>
       <r>   17.4382    0.0000 </r>
       <r>   17.8671    0.0000 </r>
       <r>   18.9264    0.0000 </r>
      </set>
      <set comment="kpoint 14">
       <r> -102.0107    1.0000 </r>
       <r> -102.0102    1.0000 </r>
       <r> -102.0096    1.0000 </r>
       <r> -102.0091    1.0000 </r>
       <r>  -25.6196    1.0000 </r>
       <r>   -9.3923    1.0000 </r>
       <r>   -9.2889    1.0000 </r>
       <r>   -8.6005    1.0000 </r>
       <r>   -8.1628    1.0000 </r>
       <r>   -7.8301    1.0000 </r>
       <r>   -7.6071    1.0000 </r>
       <r>   -3.4330    1.0000 </r>
       <r>   -3.1834    1.0000 </r>
       <r>   -1.0769    1.0000 </r>
       <r>    0.4341    1.0000 </r>
       <r>    1.1244    1.0000 </r>
       <r>    1.5580    1.0000 </r>
       <r>    2.2366    1.0000 </r>
       <r>    2.3444    1.0000 </r>
       <r>    2.4218    1.0000 </r>
       <r>    6.4416    0.0000 </r>
       <r>    7.1350    0.0000 </r>
       <r>    7.4318    0.0000 </r>
       <r>    8.2945    0.0000 </r>
       <r>    8.3860    0.0000 </r>
       <r>    8.4429    0.0000 </r>
       <r>    9.5068    0.0000 </r>
       <r>    9.6647    0.0000 </r>
       <r>   10.6636    0.0000 </r>
       <r>   10.6992    0.0000 </r>
       <r>   11.0013    0.0000 </r>
       <r>   11.1965    0.0000 </r>
       <r>   12.1223    0.0000 </r>
       <r>   12.4366    0.0000 </r>
       <r>   13.2919    0.0000 </r>
       <r>   13.3672    0.0000 </r>
       <r>   13.7597    0.0000 </r>
       <r>   14.0686    0.0000 </r>
       <r>   14.5370    0.0000 </r>
       <r>   14.9293    0.0000 </r>
       <r>   15.5476    0.0000 </r>
       <r>   15.9971    0.0000 </r>
       <r>   16.2879    0.0000 </r>
       <r>   17.0229    0.0000 </r>
       <r>   17.1941    0.0000 </r>
       <r>   17.2964    0.0000 </r>
       <r>   17.8405    0.0000 </r>
       <r>   18.2035    0.0000 </r>
      </set>
      <set comment="kpoint 15">
       <r> -102.0120    1.0000 </r>
       <r> -102.0117    1.0000 </r>
       <r> -102.0081    1.0000 </r>
       <r> -102.0076    1.0000 </r>
       <r>  -25.6694    1.0000 </r>
       <r>  -10.3148    1.0000 </r>
       <r>   -8.9937    1.0000 </r>
       <r>   -8.6409    1.0000 </r>
       <r>   -8.4126    1.0000 </r>
       <r>   -8.0956    1.0000 </r>
       <r>   -7.2065    1.0000 </r>
       <r>   -1.9952    1.0000 </r>
       <r>   -1.2702    1.0000 </r>
       <r>   -1.1679    1.0000 </r>
       <r>    0.3621    1.0000 </r>
       <r>    0.6754    1.0000 </r>
       <r>    1.5197    1.0000 </r>
       <r>    2.3017    1.0000 </r>
       <r>    2.5678    1.0000 </r>
       <r>    3.0946    1.0000 </r>
       <r>    6.8852    0.0000 </r>
       <r>    7.0319    0.0000 </r>
       <r>    7.4918    0.0000 </r>
       <r>    7.5602    0.0000 </r>
       <r>    8.4844    0.0000 </r>
       <r>    8.8156    0.0000 </r>
       <r>    9.3419    0.0000 </r>
       <r>    9.4564    0.0000 </r>
       <r>   10.2315    0.0000 </r>
       <r>   10.2770    0.0000 </r>
       <r>   10.4349    0.0000 </r>
       <r>   11.1254    0.0000 </r>
       <r>   11.3294    0.0000 </r>
       <r>   12.0922    0.0000 </r>
       <r>   12.5643    0.0000 </r>
       <r>   13.0792    0.0000 </r>
       <r>   13.4821    0.0000 </r>
       <r>   14.3007    0.0000 </r>
       <r>   14.6595    0.0000 </r>
       <r>   15.0473    0.0000 </r>
       <r>   15.2365    0.0000 </r>
       <r>   15.3839    0.0000 </r>
       <r>   15.4077    0.0000 </r>
       <r>   15.9006    0.0000 </r>
       <r>   17.4456    0.0000 </r>
       <r>   17.9826    0.0000 </r>
       <r>   18.5378    0.0000 </r>
       <r>   18.8985    0.0000 </r>
      </set>
      <set comment="kpoint 16">
       <r> -102.0115    1.0000 </r>
       <r> -102.0110    1.0000 </r>
       <r> -102.0087    1.0000 </r>
       <r> -102.0082    1.0000 </r>
       <r>  -25.6336    1.0000 </r>
       <r>   -9.8279    1.0000 </r>
       <r>   -8.9969    1.0000 </r>
       <r>   -8.7277    1.0000 </r>
       <r>   -8.4042    1.0000 </r>
       <r>   -7.8372    1.0000 </r>
       <r>   -7.3093    1.0000 </r>
       <r>   -2.5388    1.0000 </r>
       <r>   -2.4667    1.0000 </r>
       <r>   -0.7157    1.0000 </r>
[...]
       <r>    20.9290     0.0000    96.0000 </r>
       <r>    20.9424     0.0000    96.0000 </r>
       <r>    20.9558     0.0000    96.0000 </r>
       <r>    20.9693     0.0000    96.0000 </r>
       <r>    20.9827     0.0000    96.0000 </r>
       <r>    20.9961     0.0000    96.0000 </r>
       <r>    21.0095     0.0000    96.0000 </r>
       <r>    21.0229     0.0000    96.0000 </r>
       <r>    21.0363     0.0000    96.0000 </r>
       <r>    21.0498     0.0000    96.0000 </r>
       <r>    21.0632     0.0000    96.0000 </r>
       <r>    21.0766     0.0000    96.0000 </r>
       <r>    21.0900     0.0000    96.0000 </r>
       <r>    21.1034     0.0000    96.0000 </r>
       <r>    21.1168     0.0000    96.0000 </r>
       <r>    21.1303     0.0000    96.0000 </r>
       <r>    21.1437     0.0000    96.0000 </r>
       <r>    21.1571     0.0000    96.0000 </r>
       <r>    21.1705     0.0000    96.0000 </r>
       <r>    21.1839     0.0000    96.0000 </r>
       <r>    21.1973     0.0000    96.0000 </r>
       <r>    21.2108     0.0000    96.0000 </r>
       <r>    21.2242     0.0000    96.0000 </r>
       <r>    21.2376     0.0000    96.0000 </r>
       <r>    21.2510     0.0000    96.0000 </r>
       <r>    21.2644     0.0000    96.0000 </r>
       <r>    21.2778     0.0000    96.0000 </r>
       <r>    21.2913     0.0000    96.0000 </r>
       <r>    21.3047     0.0000    96.0000 </r>
       <r>    21.3181     0.0000    96.0000 </r>
       <r>    21.3315     0.0000    96.0000 </r>
       <r>    21.3449     0.0000    96.0000 </r>
       <r>    21.3583     0.0000    96.0000 </r>
       <r>    21.3718     0.0000    96.0000 </r>
       <r>    21.3852     0.0000    96.0000 </r>
       <r>    21.3986     0.0000    96.0000 </r>
       <r>    21.4120     0.0000    96.0000 </r>
       <r>    21.4254     0.0000    96.0000 </r>
       <r>    21.4388     0.0000    96.0000 </r>
       <r>    21.4523     0.0000    96.0000 </r>
       <r>    21.4657     0.0000    96.0000 </r>
       <r>    21.4791     0.0000    96.0000 </r>
       <r>    21.4925     0.0000    96.0000 </r>
       <r>    21.5059     0.0000    96.0000 </r>
       <r>    21.5193     0.0000    96.0000 </r>
       <r>    21.5327     0.0000    96.0000 </r>
       <r>    21.5462     0.0000    96.0000 </r>
       <r>    21.5596     0.0000    96.0000 </r>
       <r>    21.5730     0.0000    96.0000 </r>
       <r>    21.5864     0.0000    96.0000 </r>
       <r>    21.5998     0.0000    96.0000 </r>
       <r>    21.6132     0.0000    96.0000 </r>
       <r>    21.6267     0.0000    96.0000 </r>
       <r>    21.6401     0.0000    96.0000 </r>
       <r>    21.6535     0.0000    96.0000 </r>
       <r>    21.6669     0.0000    96.0000 </r>
       <r>    21.6803     0.0000    96.0000 </r>
       <r>    21.6937     0.0000    96.0000 </r>
       <r>    21.7072     0.0000    96.0000 </r>
       <r>    21.7206     0.0000    96.0000 </r>
       <r>    21.7340     0.0000    96.0000 </r>
       <r>    21.7474     0.0000    96.0000 </r>
       <r>    21.7608     0.0000    96.0000 </r>
       <r>    21.7742     0.0000    96.0000 </r>
       <r>    21.7877     0.0000    96.0000 </r>
       <r>    21.8011     0.0000    96.0000 </r>
       <r>    21.8145     0.0000    96.0000 </r>
       <r>    21.8279     0.0000    96.0000 </r>
       <r>    21.8413     0.0000    96.0000 </r>
       <r>    21.8547     0.0000    96.0000 </r>
       <r>    21.8682     0.0000    96.0000 </r>
       <r>    21.8816     0.0000    96.0000 </r>
       <r>    21.8950     0.0000    96.0000 </r>
       <r>    21.9084     0.0000    96.0000 </r>
       <r>    21.9218     0.0000    96.0000 </r>
       <r>    21.9352     0.0000    96.0000 </r>
       <r>    21.9487     0.0000    96.0000 </r>
       <r>    21.9621     0.0000    96.0000 </r>
       <r>    21.9755     0.0000    96.0000 </r>
       <r>    21.9889     0.0000    96.0000 </r>
       <r>    22.0023     0.0000    96.0000 </r>
       <r>    22.0157     0.0000    96.0000 </r>
       <r>    22.0292     0.0000    96.0000 </r>
       <r>    22.0426     0.0000    96.0000 </r>
       <r>    22.0560     0.0000    96.0000 </r>
       <r>    22.0694     0.0000    96.0000 </r>
       <r>    22.0828     0.0000    96.0000 </r>
       <r>    22.0962     0.0000    96.0000 </r>
       <r>    22.1097     0.0000    96.0000 </r>
       <r>    22.1231     0.0000    96.0000 </r>
       <r>    22.1365     0.0000    96.0000 </r>
       <r>    22.1499     0.0000    96.0000 </r>
       <r>    22.1633     0.0000    96.0000 </r>
       <r>    22.1767     0.0000    96.0000 </r>
       <r>    22.1902     0.0000    96.0000 </r>
       <r>    22.2036     0.0000    96.0000 </r>
       <r>    22.2170     0.0000    96.0000 </r>
       <r>    22.2304     0.0000    96.0000 </r>
       <r>    22.2438     0.0000    96.0000 </r>
       <r>    22.2572     0.0000    96.0000 </r>
       <r>    22.2707     0.0000    96.0000 </r>
       <r>    22.2841     0.0000    96.0000 </r>
       <r>    22.2975     0.0000    96.0000 </r>
       <r>    22.3109     0.0000    96.0000 </r>
       <r>    22.3243     0.0000    96.0000 </r>
       <r>    22.3377     0.0000    96.0000 </r>
       <r>    22.3512     0.0000    96.0000 </r>
       <r>    22.3646     0.0000    96.0000 </r>
       <r>    22.3780     0.0000    96.0000 </r>
       <r>    22.3914     0.0000    96.0000 </r>
       <r>    22.4048     0.0000    96.0000 </r>
       <r>    22.4182     0.0000    96.0000 </r>
       <r>    22.4317     0.0000    96.0000 </r>
       <r>    22.4451     0.0000    96.0000 </r>
       <r>    22.4585     0.0000    96.0000 </r>
       <r>    22.4719     0.0000    96.0000 </r>
       <r>    22.4853     0.0000    96.0000 </r>
       <r>    22.4987     0.0000    96.0000 </r>
       <r>    22.5122     0.0000    96.0000 </r>
       <r>    22.5256     0.0000    96.0000 </r>
       <r>    22.5390     0.0000    96.0000 </r>
       <r>    22.5524     0.0000    96.0000 </r>
       <r>    22.5658     0.0000    96.0000 </r>
       <r>    22.5792     0.0000    96.0000 </r>
       <r>    22.5927     0.0000    96.0000 </r>
       <r>    22.6061     0.0000    96.0000 </r>
       <r>    22.6195     0.0000    96.0000 </r>
       <r>    22.6329     0.0000    96.0000 </r>
       <r>    22.6463     0.0000    96.0000 </r>
       <r>    22.6597     0.0000    96.0000 </r>
       <r>    22.6732     0.0000    96.0000 </r>
       <r>    22.6866     0.0000    96.0000 </r>
       <r>    22.7000     0.0000    96.0000 </r>
       <r>    22.7134     0.0000    96.0000 </r>
       <r>    22.7268     0.0000    96.0000 </r>
       <r>    22.7402     0.0000    96.0000 </r>
       <r>    22.7537     0.0000    96.0000 </r>
       <r>    22.7671     0.0000    96.0000 </r>
       <r>    22.7805     0.0000    96.0000 </r>
       <r>    22.7939     0.0000    96.0000 </r>
       <r>    22.8073     0.0000    96.0000 </r>
       <r>    22.8207     0.0000    96.0000 </r>
       <r>    22.8342     0.0000    96.0000 </r>
       <r>    22.8476     0.0000    96.0000 </r>
       <r>    22.8610     0.0000    96.0000 </r>
       <r>    22.8744     0.0000    96.0000 </r>
       <r>    22.8878     0.0000    96.0000 </r>
       <r>    22.9012     0.0000    96.0000 </r>
       <r>    22.9146     0.0000    96.0000 </r>
       <r>    22.9281     0.0000    96.0000 </r>
       <r>    22.9415     0.0000    96.0000 </r>
       <r>    22.9549     0.0000    96.0000 </r>
       <r>    22.9683     0.0000    96.0000 </r>
       <r>    22.9817     0.0000    96.0000 </r>
       <r>    22.9951     0.0000    96.0000 </r>
       <r>    23.0086     0.0000    96.0000 </r>
       <r>    23.0220     0.0000    96.0000 </r>
       <r>    23.0354     0.0000    96.0000 </r>
       <r>    23.0488     0.0000    96.0000 </r>
       <r>    23.0622     0.0000    96.0000 </r>
       <r>    23.0756     0.0000    96.0000 </r>
       <r>    23.0891     0.0000    96.0000 </r>
       <r>    23.1025     0.0000    96.0000 </r>
       <r>    23.1159     0.0000    96.0000 </r>
       <r>    23.1293     0.0000    96.0000 </r>
       <r>    23.1427     0.0000    96.0000 </r>
       <r>    23.1561     0.0000    96.0000 </r>
       <r>    23.1696     0.0000    96.0000 </r>
       <r>    23.1830     0.0000    96.0000 </r>
       <r>    23.1964     0.0000    96.0000 </r>
       <r>    23.2098     0.0000    96.0000 </r>
       <r>    23.2232     0.0000    96.0000 </r>
       <r>    23.2366     0.0000    96.0000 </r>
       <r>    23.2501     0.0000    96.0000 </r>
       <r>    23.2635     0.0000    96.0000 </r>
       <r>    23.2769     0.0000    96.0000 </r>
       <r>    23.2903     0.0000    96.0000 </r>
       <r>    23.3037     0.0000    96.0000 </r>
       <r>    23.3171     0.0000    96.0000 </r>
       <r>    23.3306     0.0000    96.0000 </r>
       <r>    23.3440     0.0000    96.0000 </r>
       <r>    23.3574     0.0000    96.0000 </r>
       <r>    23.3708     0.0000    96.0000 </r>
       <r>    23.3842     0.0000    96.0000 </r>
       <r>    23.3976     0.0000    96.0000 </r>
       <r>    23.4111     0.0000    96.0000 </r>
       <r>    23.4245     0.0000    96.0000 </r>
       <r>    23.4379     0.0000    96.0000 </r>
       <r>    23.4513     0.0000    96.0000 </r>
       <r>    23.4647     0.0000    96.0000 </r>
       <r>    23.4781     0.0000    96.0000 </r>
       <r>    23.4916     0.0000    96.0000 </r>
       <r>    23.5050     0.0000    96.0000 </r>
       <r>    23.5184     0.0000    96.0000 </r>
       <r>    23.5318     0.0000    96.0000 </r>
       <r>    23.5452     0.0000    96.0000 </r>
       <r>    23.5586     0.0000    96.0000 </r>
       <r>    23.5721     0.0000    96.0000 </r>
       <r>    23.5855     0.0000    96.0000 </r>
       <r>    23.5989     0.0000    96.0000 </r>
       <r>    23.6123     0.0000    96.0000 </r>
       <r>    23.6257     0.0000    96.0000 </r>
       <r>    23.6391     0.0000    96.0000 </r>
       <r>    23.6526     0.0000    96.0000 </r>
       <r>    23.6660     0.0000    96.0000 </r>
       <r>    23.6794     0.0000    96.0000 </r>
       <r>    23.6928     0.0000    96.0000 </r>
       <r>    23.7062     0.0000    96.0000 </r>
       <r>    23.7196     0.0000    96.0000 </r>
       <r>    23.7331     0.0000    96.0000 </r>
       <r>    23.7465     0.0000    96.0000 </r>
       <r>    23.7599     0.0000    96.0000 </r>
       <r>    23.7733     0.0000    96.0000 </r>
       <r>    23.7867     0.0000    96.0000 </r>
       <r>    23.8001     0.0000    96.0000 </r>
       <r>    23.8136     0.0000    96.0000 </r>
       <r>    23.8270     0.0000    96.0000 </r>
       <r>    23.8404     0.0000    96.0000 </r>
       <r>    23.8538     0.0000    96.0000 </r>
       <r>    23.8672     0.0000    96.0000 </r>
       <r>    23.8806     0.0000    96.0000 </r>
       <r>    23.8941     0.0000    96.0000 </r>
       <r>    23.9075     0.0000    96.0000 </r>
       <r>    23.9209     0.0000    96.0000 </r>
       <r>    23.9343     0.0000    96.0000 </r>
       <r>    23.9477     0.0000    96.0000 </r>
       <r>    23.9611     0.0000    96.0000 </r>
       <r>    23.9746     0.0000    96.0000 </r>
       <r>    23.9880     0.0000    96.0000 </r>
       <r>    24.0014     0.0000    96.0000 </r>
       <r>    24.0148     0.0000    96.0000 </r>
       <r>    24.0282     0.0000    96.0000 </r>
       <r>    24.0416     0.0000    96.0000 </r>
       <r>    24.0551     0.0000    96.0000 </r>
       <r>    24.0685     0.0000    96.0000 </r>
       <r>    24.0819     0.0000    96.0000 </r>
       <r>    24.0953     0.0000    96.0000 </r>
       <r>    24.1087     0.0000    96.0000 </r>
       <r>    24.1221     0.0000    96.0000 </r>
       <r>    24.1356     0.0000    96.0000 </r>
       <r>    24.1490     0.0000    96.0000 </r>
       <r>    24.1624     0.0000    96.0000 </r>
       <r>    24.1758     0.0000    96.0000 </r>
       <r>    24.1892     0.0000    96.0000 </r>
       <r>    24.2026     0.0000    96.0000 </r>
       <r>    24.2160     0.0000    96.0000 </r>
       <r>    24.2295     0.0000    96.0000 </r>
       <r>    24.2429     0.0000    96.0000 </r>
       <r>    24.2563     0.0000    96.0000 </r>
       <r>    24.2697     0.0000    96.0000 </r>
       <r>    24.2831     0.0000    96.0000 </r>
       <r>    24.2965     0.0000    96.0000 </r>
       <r>    24.3100     0.0000    96.0000 </r>
       <r>    24.3234     0.0000    96.0000 </r>
       <r>    24.3368     0.0000    96.0000 </r>
       <r>    24.3502     0.0000    96.0000 </r>
       <r>    24.3636     0.0000    96.0000 </r>
       <r>    24.3770     0.0000    96.0000 </r>
       <r>    24.3905     0.0000    96.0000 </r>
       <r>    24.4039     0.0000    96.0000 </r>
       <r>    24.4173     0.0000    96.0000 </r>
       <r>    24.4307     0.0000    96.0000 </r>
       <r>    24.4441     0.0000    96.0000 </r>
       <r>    24.4575     0.0000    96.0000 </r>
       <r>    24.4710     0.0000    96.0000 </r>
       <r>    24.4844     0.0000    96.0000 </r>
       <r>    24.4978     0.0000    96.0000 </r>
       <r>    24.5112     0.0000    96.0000 </r>
       <r>    24.5246     0.0000    96.0000 </r>
       <r>    24.5380     0.0000    96.0000 </r>
       <r>    24.5515     0.0000    96.0000 </r>
       <r>    24.5649     0.0000    96.0000 </r>
       <r>    24.5783     0.0000    96.0000 </r>
       <r>    24.5917     0.0000    96.0000 </r>
       <r>    24.6051     0.0000    96.0000 </r>
       <r>    24.6185     0.0000    96.0000 </r>
       <r>    24.6320     0.0000    96.0000 </r>
       <r>    24.6454     0.0000    96.0000 </r>
       <r>    24.6588     0.0000    96.0000 </r>
       <r>    24.6722     0.0000    96.0000 </r>
       <r>    24.6856     0.0000    96.0000 </r>
       <r>    24.6990     0.0000    96.0000 </r>
       <r>    24.7125     0.0000    96.0000 </r>
       <r>    24.7259     0.0000    96.0000 </r>
       <r>    24.7393     0.0000    96.0000 </r>
       <r>    24.7527     0.0000    96.0000 </r>
       <r>    24.7661     0.0000    96.0000 </r>
       <r>    24.7795     0.0000    96.0000 </r>
       <r>    24.7930     0.0000    96.0000 </r>
       <r>    24.8064     0.0000    96.0000 </r>
       <r>    24.8198     0.0000    96.0000 </r>
       <r>    24.8332     0.0000    96.0000 </r>
       <r>    24.8466     0.0000    96.0000 </r>
       <r>    24.8600     0.0000    96.0000 </r>
       <r>    24.8735     0.0000    96.0000 </r>
       <r>    24.8869     0.0000    96.0000 </r>
       <r>    24.9003     0.0000    96.0000 </r>
       <r>    24.9137     0.0000    96.0000 </r>
       <r>    24.9271     0.0000    96.0000 </r>
       <r>    24.9405     0.0000    96.0000 </r>
       <r>    24.9540     0.0000    96.0000 </r>
       <r>    24.9674     0.0000    96.0000 </r>
       <r>    24.9808     0.0000    96.0000 </r>
       <r>    24.9942     0.0000    96.0000 </r>
       <r>    25.0076     0.0000    96.0000 </r>
       <r>    25.0210     0.0000    96.0000 </r>
       <r>    25.0345     0.0000    96.0000 </r>
       <r>    25.0479     0.0000    96.0000 </r>
       <r>    25.0613     0.0000    96.0000 </r>
       <r>    25.0747     0.0000    96.0000 </r>
       <r>    25.0881     0.0000    96.0000 </r>
       <r>    25.1015     0.0000    96.0000 </r>
       <r>    25.1150     0.0000    96.0000 </r>
       <r>    25.1284     0.0000    96.0000 </r>
       <r>    25.1418     0.0000    96.0000 </r>
       <r>    25.1552     0.0000    96.0000 </r>
       <r>    25.1686     0.0000    96.0000 </r>
       <r>    25.1820     0.0000    96.0000 </r>
       <r>    25.1955     0.0000    96.0000 </r>
       <r>    25.2089     0.0000    96.0000 </r>
       <r>    25.2223     0.0000    96.0000 </r>
       <r>    25.2357     0.0000    96.0000 </r>
       <r>    25.2491     0.0000    96.0000 </r>
       <r>    25.2625     0.0000    96.0000 </r>
       <r>    25.2760     0.0000    96.0000 </r>
       <r>    25.2894     0.0000    96.0000 </r>
       <r>    25.3028     0.0000    96.0000 </r>
       <r>    25.3162     0.0000    96.0000 </r>
       <r>    25.3296     0.0000    96.0000 </r>
       <r>    25.3430     0.0000    96.0000 </r>
       <r>    25.3565     0.0000    96.0000 </r>
       <r>    25.3699     0.0000    96.0000 </r>
       <r>    25.3833     0.0000    96.0000 </r>
       <r>    25.3967     0.0000    96.0000 </r>
       <r>    25.4101     0.0000    96.0000 </r>
       <r>    25.4235     0.0000    96.0000 </r>
       <r>    25.4370     0.0000    96.0000 </r>
       <r>    25.4504     0.0000    96.0000 </r>
       <r>    25.4638     0.0000    96.0000 </r>
       <r>    25.4772     0.0000    96.0000 </r>
       <r>    25.4906     0.0000    96.0000 </r>
       <r>    25.5040     0.0000    96.0000 </r>
       <r>    25.5175     0.0000    96.0000 </r>
       <r>    25.5309     0.0000    96.0000 </r>
       <r>    25.5443     0.0000    96.0000 </r>
       <r>    25.5577     0.0000    96.0000 </r>
       <r>    25.5711     0.0000    96.0000 </r>
       <r>    25.5845     0.0000    96.0000 </r>
       <r>    25.5979     0.0000    96.0000 </r>
       <r>    25.6114     0.0000    96.0000 </r>
       <r>    25.6248     0.0000    96.0000 </r>
       <r>    25.6382     0.0000    96.0000 </r>
       <r>    25.6516     0.0000    96.0000 </r>
       <r>    25.6650     0.0000    96.0000 </r>
       <r>    25.6784     0.0000    96.0000 </r>
       <r>    25.6919     0.0000    96.0000 </r>
       <r>    25.7053     0.0000    96.0000 </r>
       <r>    25.7187     0.0000    96.0000 </r>
       <r>    25.7321     0.0000    96.0000 </r>
       <r>    25.7455     0.0000    96.0000 </r>
       <r>    25.7589     0.0000    96.0000 </r>
       <r>    25.7724     0.0000    96.0000 </r>
       <r>    25.7858     0.0000    96.0000 </r>
       <r>    25.7992     0.0000    96.0000 </r>
       <r>    25.8126     0.0000    96.0000 </r>
       <r>    25.8260     0.0000    96.0000 </r>
       <r>    25.8394     0.0000    96.0000 </r>
       <r>    25.8529     0.0000    96.0000 </r>
       <r>    25.8663     0.0000    96.0000 </r>
       <r>    25.8797     0.0000    96.0000 </r>
       <r>    25.8931     0.0000    96.0000 </r>
       <r>    25.9065     0.0000    96.0000 </r>
       <r>    25.9199     0.0000    96.0000 </r>
       <r>    25.9334     0.0000    96.0000 </r>
       <r>    25.9468     0.0000    96.0000 </r>
       <r>    25.9602     0.0000    96.0000 </r>
       <r>    25.9736     0.0000    96.0000 </r>
       <r>    25.9870     0.0000    96.0000 </r>
       <r>    26.0004     0.0000    96.0000 </r>
       <r>    26.0139     0.0000    96.0000 </r>
       <r>    26.0273     0.0000    96.0000 </r>
       <r>    26.0407     0.0000    96.0000 </r>
       <r>    26.0541     0.0000    96.0000 </r>
      </set>
     </set>
    </array>
   </total>
  </dos>
 </calculation>
 <structure name="finalpos" >
  <crystal>
   <varray name="basis" >
    <v>       3.64446899       0.00000000      -0.00000000 </v>
    <v>       0.00000000       3.64446899       0.00000000 </v>
    <v>       0.00000000       0.00000000       9.78381861 </v>
   </varray>
   <i name="volume">    129.95018760 </i>
   <varray name="rec_basis" >
    <v>       0.27438840       0.00000000       0.00000000 </v>
    <v>      -0.00000000       0.27438840       0.00000000 </v>
    <v>       0.00000000      -0.00000000       0.10220958 </v>
   </varray>
  </crystal>
  <varray name="positions" >
   <v>       0.00000000       0.00000000       0.50000000 </v>
   <v>       0.00000000       0.50000000       0.14297177 </v>
   <v>       0.00000000       0.50000000       0.85702823 </v>
   <v>       0.50000000       0.00000000       0.85702823 </v>
   <v>       0.50000000       0.00000000       0.14297177 </v>
   <v>       0.00000000       0.00000000       0.00000000 </v>
   <v>       0.50000000       0.50000000       0.26060231 </v>
   <v>       0.50000000       0.50000000       0.73939769 </v>
  </varray>
 </structure>
</modeling>
