Be4P3Rb                                 
            1
     3.644469    0.000000   -0.000000
     0.000000    3.644469    0.000000
     0.000000    0.000000    9.783819
   Rb   Be   P 
     1     4     3
Direct configuration=     1
   0.00000000  0.00000000  0.50000000
   0.00000000  0.50000000  0.14297177
   0.00000000  0.50000000  0.85702823
   0.50000000  0.00000000  0.85702823
   0.50000000  0.00000000  0.14297177
   0.00000000  0.00000000  0.00000000
   0.50000000  0.50000000  0.26060231
   0.50000000  0.50000000  0.73939769
