  15  15   0   0
  0.7236596E+01  0.5235000E-09  0.5235000E-09  0.5235000E-09  0.5000000E-15
   1.0000000000000000E-004
  CAR 
 B12BeN2                                 
     16.26778692    -16.08102268  301      5.17484096      1.00000000
    -16.081  0.0000E+00  0.0000E+00
    -15.973  0.0000E+00  0.0000E+00
    -15.865  0.0000E+00  0.0000E+00
    -15.758  0.0000E+00  0.0000E+00
    -15.650  0.0000E+00  0.0000E+00
    -15.542  0.0000E+00  0.0000E+00
    -15.434  0.0000E+00  0.0000E+00
    -15.326  0.0000E+00  0.0000E+00
    -15.218  0.0000E+00  0.0000E+00
    -15.111  0.0000E+00  0.0000E+00
    -15.003  0.0000E+00  0.0000E+00
    -14.895  0.0000E+00  0.0000E+00
    -14.787  0.0000E+00  0.0000E+00
    -14.679  0.0000E+00  0.0000E+00
    -14.571  0.1304E-03  0.1406E-04
    -14.464  0.9863E-03  0.1649E-03
    -14.356  0.1930E-02  0.4503E-03
    -14.248  0.2721E-02  0.8403E-03
    -14.140  0.3150E-02  0.1285E-02
    -14.032  0.3089E-02  0.1829E-02
    -13.924  0.6521E-03  0.2000E-02
    -13.817  0.1805E-02  0.2195E-02
    -13.709  0.4153E-02  0.2928E-02
    -13.601  0.3527E-02  0.3412E-02
    -13.493  0.3160E-02  0.3864E-02
    -13.385  0.1811E-03  0.4000E-02
    -13.277  0.0000E+00  0.4000E-02
    -13.170  0.0000E+00  0.4000E-02
    -13.062  0.0000E+00  0.4000E-02
    -12.954  0.0000E+00  0.4000E-02
    -12.846  0.0000E+00  0.4000E-02
    -12.738  0.0000E+00  0.4000E-02
    -12.630  0.0000E+00  0.4000E-02
    -12.523  0.0000E+00  0.4000E-02
    -12.415  0.0000E+00  0.4000E-02
    -12.307  0.0000E+00  0.4000E-02
    -12.199  0.0000E+00  0.4000E-02
    -12.091  0.0000E+00  0.4000E-02
    -11.984  0.0000E+00  0.4000E-02
    -11.876  0.0000E+00  0.4000E-02
    -11.768  0.0000E+00  0.4000E-02
    -11.660  0.0000E+00  0.4000E-02
    -11.552  0.0000E+00  0.4000E-02
    -11.444  0.0000E+00  0.4000E-02
    -11.337  0.0000E+00  0.4000E-02
    -11.229  0.0000E+00  0.4000E-02
    -11.121  0.0000E+00  0.4000E-02
    -11.013  0.3134E-09  0.4000E-02
    -10.905  0.3234E-02  0.4349E-02
    -10.797  0.2731E-02  0.4775E-02
    -10.690  0.2983E-02  0.5154E-02
    -10.582  0.2152E-02  0.5451E-02
    -10.474  0.1115E-02  0.5597E-02
    -10.366  0.1241E-02  0.5798E-02
    -10.258  0.7549E-03  0.5910E-02
    -10.150  0.5259E-03  0.5967E-02
    -10.043  0.7281E-04  0.5996E-02
     -9.935  0.0000E+00  0.6000E-02
     -9.827  0.0000E+00  0.6000E-02
     -9.719  0.0000E+00  0.6000E-02
     -9.611  0.0000E+00  0.6000E-02
     -9.503  0.0000E+00  0.6000E-02
     -9.396  0.0000E+00  0.6000E-02
     -9.288  0.0000E+00  0.6000E-02
     -9.180  0.0000E+00  0.6000E-02
     -9.072  0.0000E+00  0.6000E-02
     -8.964  0.0000E+00  0.6000E-02
     -8.856  0.0000E+00  0.6000E-02
     -8.749  0.0000E+00  0.6000E-02
     -8.641  0.0000E+00  0.6000E-02
     -8.533  0.0000E+00  0.6000E-02
     -8.425  0.0000E+00  0.6000E-02
     -8.317  0.0000E+00  0.6000E-02
     -8.209  0.0000E+00  0.6000E-02
     -8.102  0.0000E+00  0.6000E-02
     -7.994  0.1451E-15  0.6000E-02
     -7.886  0.4712E-03  0.6051E-02
     -7.778  0.6521E-03  0.6168E-02
     -7.670  0.2131E-02  0.6398E-02
     -7.563  0.1526E-02  0.6622E-02
     -7.455  0.1533E-02  0.6880E-02
     -7.347  0.1759E-02  0.7139E-02
     -7.239  0.2627E-02  0.7537E-02
     -7.131  0.3864E-02  0.7975E-02
     -7.023  0.1895E-02  0.8279E-02
     -6.916  0.4156E-02  0.8823E-02
     -6.808  0.2665E-02  0.9201E-02
     -6.700  0.2388E-02  0.9617E-02
     -6.592  0.3494E-02  0.1009E-01
     -6.484  0.3675E-02  0.1049E-01
     -6.376  0.1860E-02  0.1076E-01
     -6.269  0.2631E-02  0.1110E-01
     -6.161  0.2600E-02  0.1155E-01
     -6.053  0.2185E-02  0.1179E-01
     -5.945  0.4631E-03  0.1189E-01
     -5.837  0.3074E-03  0.1195E-01
     -5.729  0.2174E-03  0.1199E-01
     -5.622  0.1087E-03  0.1200E-01
     -5.514  0.7245E-04  0.1201E-01
     -5.406  0.1449E-03  0.1202E-01
     -5.298  0.1838E-04  0.1203E-01
     -5.190  0.3637E-03  0.1209E-01
     -5.082  0.4347E-03  0.1216E-01
     -4.975  0.6497E-03  0.1223E-01
     -4.867  0.2174E-03  0.1229E-01
     -4.759  0.1058E-02  0.1240E-01
     -4.651  0.1289E-02  0.1254E-01
     -4.543  0.2322E-02  0.1282E-01
     -4.435  0.6374E-03  0.1289E-01
     -4.328  0.1193E-02  0.1313E-01
     -4.220  0.2375E-02  0.1349E-01
     -4.112  0.4291E-02  0.1405E-01
     -4.004  0.3751E-02  0.1461E-01
     -3.896  0.1041E-02  0.1481E-01
     -3.788  0.2852E-02  0.1519E-01
     -3.681  0.3587E-02  0.1565E-01
     -3.573  0.8694E-03  0.1582E-01
     -3.465  0.2174E-02  0.1606E-01
     -3.357  0.3500E-02  0.1655E-01
     -3.249  0.2395E-02  0.1690E-01
     -3.141  0.2118E-02  0.1720E-01
     -3.034  0.1722E-02  0.1751E-01
     -2.926  0.4000E-02  0.1805E-01
     -2.818  0.4715E-02  0.1863E-01
     -2.710  0.2125E-02  0.1894E-01
     -2.602  0.2380E-02  0.1923E-01
     -2.495  0.3504E-02  0.1967E-01
     -2.387  0.2157E-02  0.1999E-01
     -2.279  0.3253E-02  0.2045E-01
     -2.171  0.3931E-02  0.2092E-01
     -2.063  0.2076E-02  0.2125E-01
     -1.955  0.3190E-02  0.2177E-01
     -1.848  0.2115E-02  0.2222E-01
     -1.740  0.3057E-02  0.2283E-01
     -1.632  0.4599E-02  0.2339E-01
     -1.524  0.4048E-02  0.2397E-01
     -1.416  0.4542E-02  0.2458E-01
     -1.308  0.2249E-02  0.2506E-01
     -1.201  0.5155E-02  0.2568E-01
     -1.093  0.3982E-02  0.2622E-01
     -0.985  0.1693E-02  0.2646E-01
     -0.877  0.2704E-02  0.2680E-01
     -0.769  0.2649E-02  0.2713E-01
     -0.661  0.2103E-02  0.2750E-01
     -0.554  0.2162E-02  0.2775E-01
     -0.446  0.2520E-02  0.2803E-01
     -0.338  0.1859E-03  0.2818E-01
     -0.230  0.2594E-02  0.2847E-01
     -0.122  0.2181E-02  0.2881E-01
     -0.014  0.2821E-02  0.2921E-01
      0.093  0.1448E-02  0.2939E-01
      0.201  0.1522E-02  0.2959E-01
      0.309  0.2213E-02  0.2985E-01
      0.417  0.3142E-02  0.3023E-01
      0.525  0.1957E-02  0.3055E-01
      0.633  0.2585E-02  0.3095E-01
      0.740  0.2742E-02  0.3126E-01
      0.848  0.2557E-02  0.3171E-01
      0.956  0.3145E-02  0.3213E-01
      1.064  0.2980E-02  0.3254E-01
      1.172  0.3660E-02  0.3303E-01
      1.280  0.2173E-02  0.3334E-01
      1.387  0.4282E-02  0.3395E-01
      1.495  0.4375E-02  0.3446E-01
      1.603  0.2231E-02  0.3481E-01
      1.711  0.4114E-02  0.3530E-01
      1.819  0.2611E-02  0.3572E-01
      1.926  0.1912E-02  0.3616E-01
      2.034  0.3997E-02  0.3674E-01
      2.142  0.3521E-02  0.3730E-01
      2.250  0.2310E-02  0.3770E-01
      2.358  0.2791E-02  0.3808E-01
      2.466  0.3490E-02  0.3854E-01
      2.573  0.4581E-02  0.3921E-01
      2.681  0.3975E-02  0.3985E-01
      2.789  0.2813E-02  0.4028E-01
      2.897  0.2839E-02  0.4075E-01
      3.005  0.2332E-02  0.4117E-01
      3.113  0.5243E-02  0.4194E-01
      3.220  0.2543E-02  0.4234E-01
      3.328  0.3676E-02  0.4289E-01
      3.436  0.2249E-02  0.4322E-01
      3.544  0.1751E-02  0.4354E-01
      3.652  0.3722E-02  0.4401E-01
      3.760  0.3243E-02  0.4449E-01
      3.867  0.3834E-02  0.4502E-01
      3.975  0.3692E-02  0.4555E-01
      4.083  0.4624E-02  0.4605E-01
      4.191  0.1997E-02  0.4646E-01
      4.299  0.1243E-02  0.4666E-01
      4.407  0.3307E-02  0.4721E-01
      4.514  0.2034E-02  0.4759E-01
      4.622  0.1195E-02  0.4774E-01
      4.730  0.7244E-03  0.4782E-01
      4.838  0.1273E-02  0.4796E-01
      4.946  0.2174E-03  0.4798E-01
      5.054  0.1398E-03  0.4800E-01
      5.161  0.0000E+00  0.4800E-01
      5.269  0.0000E+00  0.4800E-01
      5.377  0.0000E+00  0.4800E-01
      5.485  0.0000E+00  0.4800E-01
      5.593  0.0000E+00  0.4800E-01
      5.701  0.0000E+00  0.4800E-01
      5.808  0.0000E+00  0.4800E-01
      5.916  0.0000E+00  0.4800E-01
      6.024  0.0000E+00  0.4800E-01
      6.132  0.0000E+00  0.4800E-01
      6.240  0.0000E+00  0.4800E-01
      6.347  0.0000E+00  0.4800E-01
      6.455  0.0000E+00  0.4800E-01
      6.563  0.0000E+00  0.4800E-01
      6.671  0.0000E+00  0.4800E-01
      6.779  0.0000E+00  0.4800E-01
      6.887  0.0000E+00  0.4800E-01
      6.994  0.0000E+00  0.4800E-01
      7.102  0.0000E+00  0.4800E-01
      7.210  0.0000E+00  0.4800E-01
      7.318  0.0000E+00  0.4800E-01
      7.426  0.0000E+00  0.4800E-01
      7.534  0.0000E+00  0.4800E-01
      7.641  0.0000E+00  0.4800E-01
      7.749  0.0000E+00  0.4800E-01
      7.857  0.0000E+00  0.4800E-01
      7.965  0.0000E+00  0.4800E-01
      8.073  0.0000E+00  0.4800E-01
      8.181  0.0000E+00  0.4800E-01
      8.288  0.0000E+00  0.4800E-01
      8.396  0.0000E+00  0.4800E-01
      8.504  0.0000E+00  0.4800E-01
      8.612  0.0000E+00  0.4800E-01
      8.720  0.0000E+00  0.4800E-01
      8.828  0.1010E-14  0.4800E-01
      8.935  0.3623E-04  0.4800E-01
      9.043  0.0000E+00  0.4800E-01
      9.151  0.6281E-05  0.4800E-01
      9.259  0.5145E-04  0.4804E-01
      9.367  0.1254E-02  0.4821E-01
      9.475  0.3878E-03  0.4832E-01
      9.582  0.3310E-02  0.4870E-01
      9.690  0.3745E-02  0.4922E-01
      9.798  0.4398E-02  0.4977E-01
      9.906  0.3285E-02  0.5037E-01
     10.014  0.1716E-02  0.5063E-01
     10.122  0.1073E-02  0.5078E-01
     10.229  0.2237E-02  0.5107E-01
     10.337  0.3033E-02  0.5146E-01
     10.445  0.1806E-02  0.5174E-01
     10.553  0.2308E-02  0.5201E-01
     10.661  0.1957E-02  0.5230E-01
     10.768  0.1180E-02  0.5247E-01
     10.876  0.3106E-02  0.5291E-01
     10.984  0.2347E-02  0.5332E-01
     11.092  0.2329E-02  0.5359E-01
     11.200  0.1205E-02  0.5390E-01
     11.308  0.1351E-02  0.5415E-01
     11.415  0.4479E-02  0.5470E-01
     11.523  0.2607E-02  0.5504E-01
     11.631  0.2962E-02  0.5543E-01
     11.739  0.2209E-02  0.5571E-01
     11.847  0.3184E-02  0.5618E-01
     11.955  0.1269E-02  0.5647E-01
     12.062  0.8499E-03  0.5663E-01
     12.170  0.2181E-02  0.5704E-01
     12.278  0.1412E-02  0.5732E-01
     12.386  0.2003E-02  0.5763E-01
     12.494  0.4479E-02  0.5833E-01
     12.602  0.3051E-02  0.5881E-01
     12.709  0.2738E-02  0.5922E-01
     12.817  0.3401E-02  0.5973E-01
     12.925  0.3494E-02  0.6028E-01
     13.033  0.4153E-02  0.6087E-01
     13.141  0.2038E-02  0.6125E-01
     13.249  0.2851E-02  0.6157E-01
     13.356  0.1257E-02  0.6189E-01
     13.464  0.1233E-02  0.6203E-01
     13.572  0.1226E-02  0.6239E-01
     13.680  0.1949E-02  0.6266E-01
     13.788  0.2538E-02  0.6297E-01
     13.896  0.1610E-02  0.6317E-01
     14.003  0.8903E-03  0.6329E-01
     14.111  0.1669E-02  0.6350E-01
     14.219  0.9214E-03  0.6363E-01
     14.327  0.8375E-03  0.6378E-01
     14.435  0.2898E-03  0.6385E-01
     14.543  0.6730E-03  0.6392E-01
     14.650  0.1449E-03  0.6396E-01
     14.758  0.1449E-03  0.6398E-01
     14.866  0.1449E-03  0.6400E-01
     14.974  0.0000E+00  0.6400E-01
     15.082  0.0000E+00  0.6400E-01
     15.189  0.0000E+00  0.6400E-01
     15.297  0.0000E+00  0.6400E-01
     15.405  0.0000E+00  0.6400E-01
     15.513  0.0000E+00  0.6400E-01
     15.621  0.0000E+00  0.6400E-01
     15.729  0.0000E+00  0.6400E-01
     15.836  0.0000E+00  0.6400E-01
     15.944  0.0000E+00  0.6400E-01
     16.052  0.0000E+00  0.6400E-01
     16.160  0.0000E+00  0.6400E-01
     16.268  0.0000E+00  0.6400E-01
