   15   15 1000    1
  0.7236596E+01  0.5235000E-09  0.5235000E-09  0.5235000E-09  0.5000000E-15
   1.0000000000000000E-004
  CAR 
 B12BeN2                                 
     48    150     32
 
  0.1262379E-14  0.1262379E-14  0.1262379E-14  0.1953125E-02
      1        -14.610622   1.000000
      2        -13.447437   1.000000
      3        -10.303324   1.000000
      4         -6.527367   1.000000
      5         -6.527367   1.000000
      6         -5.849465   1.000000
      7         -4.994267   1.000000
      8         -4.994254   1.000000
      9         -3.137981   1.000000
     10         -2.706945   1.000000
     11         -2.706931   1.000000
     12         -2.047687   1.000000
     13         -2.047657   1.000000
     14         -1.741262   1.000000
     15         -1.070547   1.000000
     16          1.254577   1.000000
     17          1.254590   1.000000
     18          2.297080   1.000000
     19          2.715033   1.000000
     20          2.743922   1.000000
     21          2.743989   1.000000
     22          3.279821   1.000000
     23          4.440769   1.000000
     24          4.440788   1.000000
     25         11.735904   0.000000
     26         11.778510   0.000000
     27         11.778515   0.000000
     28         12.634453   0.000000
     29         12.634575   0.000000
     30         13.601732   0.000000
     31         13.764363   0.000000
     32         14.676278   0.000000
 
  0.1250000E+00  0.1251844E-14  0.1257907E-14  0.7812500E-02
      1        -14.562162   1.000000
      2        -13.478286   1.000000
      3        -10.394285   1.000000
      4         -6.630830   1.000000
      5         -6.601404   1.000000
      6         -5.968328   1.000000
      7         -4.774872   1.000000
      8         -4.613558   1.000000
      9         -3.146894   1.000000
     10         -3.002845   1.000000
     11         -2.830241   1.000000
     12         -2.335753   1.000000
     13         -1.763727   1.000000
     14         -1.260884   1.000000
     15         -0.870179   1.000000
     16          1.031719   1.000000
     17          1.392892   1.000000
     18          2.345569   1.000000
     19          2.413150   1.000000
     20          2.535915   1.000000
     21          2.851433   1.000000
     22          3.333558   1.000000
     23          4.279200   1.000000
     24          4.471694   1.000000
     25         11.551201   0.000000
     26         11.592493   0.000000
     27         11.918063   0.000000
     28         12.297951   0.000000
     29         12.692374   0.000000
     30         13.179619   0.000000
     31         13.481939   0.000000
     32         13.848694   0.000000
 
  0.1262379E-14  0.1262379E-14  0.1250000E+00  0.3906250E-02
      1        -14.562162   1.000000
      2        -13.478286   1.000000
      3        -10.394286   1.000000
      4         -6.630829   1.000000
      5         -6.601400   1.000000
      6         -5.968330   1.000000
      7         -4.774862   1.000000
      8         -4.613569   1.000000
      9         -3.146891   1.000000
     10         -3.002838   1.000000
     11         -2.830252   1.000000
     12         -2.335775   1.000000
     13         -1.763703   1.000000
     14         -1.260879   1.000000
     15         -0.870189   1.000000
     16          1.031721   1.000000
     17          1.392902   1.000000
     18          2.345593   1.000000
     19          2.413115   1.000000
     20          2.535873   1.000000
     21          2.851456   1.000000
     22          3.333586   1.000000
     23          4.279213   1.000000
     24          4.471679   1.000000
     25         11.551205   0.000000
     26         11.592486   0.000000
     27         11.918062   0.000000
     28         12.297818   0.000000
     29         12.692346   0.000000
     30         13.179618   0.000000
     31         13.482600   0.000000
     32         13.849301   0.000000
 
  0.2500000E+00  0.1259979E-14  0.1299092E-14  0.7812500E-02
      1        -14.427648   1.000000
      2        -13.566399   1.000000
      3        -10.619983   1.000000
      4         -6.815479   1.000000
      5         -6.623051   1.000000
      6         -6.174526   1.000000
      7         -4.326867   1.000000
      8         -3.976788   1.000000
      9         -3.325959   1.000000
     10         -3.294261   1.000000
     11         -2.942597   1.000000
     12         -2.153781   1.000000
     13         -1.498668   1.000000
     14         -1.237191   1.000000
     15         -0.257590   1.000000
     16          1.279738   1.000000
     17          1.637563   1.000000
     18          1.668754   1.000000
     19          1.713660   1.000000
     20          2.407620   1.000000
     21          3.306307   1.000000
     22          3.347048   1.000000
     23          3.818114   1.000000
     24          4.524014   1.000000
     25         10.877854   0.000000
     26         11.094449   0.000000
     27         11.279441   0.000000
     28         11.810307   0.000000
     29         13.069982   0.000000
     30         13.137306   0.000000
     31         13.348579   0.000000
     32         13.836970   0.000000
 
  0.1262379E-14  0.1262379E-14  0.2500000E+00  0.3906250E-02
      1        -14.427649   1.000000
      2        -13.566397   1.000000
      3        -10.619985   1.000000
      4         -6.815476   1.000000
      5         -6.623045   1.000000
      6         -6.174528   1.000000
      7         -4.326852   1.000000
      8         -3.976793   1.000000
      9         -3.325981   1.000000
     10         -3.294261   1.000000
     11         -2.942602   1.000000
     12         -2.153799   1.000000
     13         -1.498645   1.000000
     14         -1.237190   1.000000
     15         -0.257589   1.000000
     16          1.279745   1.000000
     17          1.637572   1.000000
     18          1.668717   1.000000
     19          1.713676   1.000000
     20          2.407602   1.000000
     21          3.306317   1.000000
     22          3.347086   1.000000
     23          3.818122   1.000000
     24          4.523999   1.000000
     25         10.877836   0.000000
     26         11.094454   0.000000
     27         11.279459   0.000000
     28         11.810329   0.000000
     29         13.069980   0.000000
     30         13.137316   0.000000
     31         13.348427   0.000000
     32         13.836827   0.000000
 
  0.3750000E+00  0.1207948E-14  0.1252439E-14  0.7812500E-02
      1        -14.245544   1.000000
      2        -13.696043   1.000000
      3        -10.850407   1.000000
      4         -6.951819   1.000000
      5         -6.622115   1.000000
      6         -6.191533   1.000000
      7         -4.202287   1.000000
      8         -4.144877   1.000000
      9         -3.082238   1.000000
     10         -3.017439   1.000000
     11         -2.442440   1.000000
     12         -1.944144   1.000000
     13         -1.643759   1.000000
     14         -1.522314   1.000000
     15          0.502184   1.000000
     16          0.841865   1.000000
     17          1.117525   1.000000
     18          1.622813   1.000000
     19          1.929369   1.000000
     20          2.523145   1.000000
     21          3.124376   1.000000
     22          3.500917   1.000000
     23          3.578045   1.000000
     24          4.549550   1.000000
     25         10.029822   0.000000
     26         10.209519   0.000000
     27         10.560883   0.000000
     28         11.377870   0.000000
     29         13.413011   0.000000
     30         13.536489   0.000000
     31         13.661944   0.000000
     32         14.072905   0.000000
 
  0.1262379E-14  0.1262379E-14  0.3750000E+00  0.3906250E-02
      1        -14.245547   1.000000
      2        -13.696038   1.000000
      3        -10.850411   1.000000
      4         -6.951815   1.000000
      5         -6.622118   1.000000
      6         -6.191523   1.000000
      7         -4.202289   1.000000
      8         -4.144860   1.000000
      9         -3.082260   1.000000
     10         -3.017440   1.000000
     11         -2.442468   1.000000
     12         -1.944154   1.000000
     13         -1.643748   1.000000
     14         -1.522312   1.000000
     15          0.502170   1.000000
     16          0.841858   1.000000
     17          1.117536   1.000000
     18          1.622821   1.000000
     19          1.929400   1.000000
     20          2.523139   1.000000
     21          3.124381   1.000000
     22          3.500945   1.000000
     23          3.578047   1.000000
     24          4.549536   1.000000
     25         10.029799   0.000000
     26         10.209542   0.000000
     27         10.560892   0.000000
     28         11.377884   0.000000
     29         13.412997   0.000000
     30         13.536456   0.000000
     31         13.663826   0.000000
     32         14.073654   0.000000
 
  0.5000000E+00  0.1250733E-14  0.1270603E-14  0.3906250E-02
      1        -14.129779   1.000000
      2        -13.788034   1.000000
      3        -10.946593   1.000000
      4         -6.999689   1.000000
      5         -6.656453   1.000000
      6         -6.101322   1.000000
      7         -4.409181   1.000000
      8         -4.169054   1.000000
      9         -2.981728   1.000000
     10         -2.477105   1.000000
     11         -2.368448   1.000000
     12         -2.077194   1.000000
     13         -1.585571   1.000000
     14         -1.346399   1.000000
     15         -0.178430   1.000000
     16          0.967597   1.000000
     17          1.204872   1.000000
     18          1.935088   1.000000
     19          1.957465   1.000000
     20          2.419564   1.000000
     21          2.826796   1.000000
     22          3.629926   1.000000
     23          3.663993   1.000000
     24          4.545492   1.000000
     25          9.659289   0.000000
     26          9.743948   0.000000
     27         10.312184   0.000000
     28         11.187981   0.000000
     29         13.570049   0.000000
     30         13.714554   0.000000
     31         13.875358   0.000000
     32         14.167829   0.000000
 
  0.1262379E-14  0.1262379E-14  0.5000000E+00  0.1953125E-02
      1        -14.129785   1.000000
      2        -13.788025   1.000000
      3        -10.946598   1.000000
      4         -6.999685   1.000000
      5         -6.656459   1.000000
      6         -6.101306   1.000000
      7         -4.409186   1.000000
      8         -4.169040   1.000000
      9         -2.981756   1.000000
     10         -2.477090   1.000000
     11         -2.368454   1.000000
     12         -2.077202   1.000000
     13         -1.585600   1.000000
     14         -1.346405   1.000000
     15         -0.178441   1.000000
     16          0.967612   1.000000
     17          1.204879   1.000000
     18          1.935103   1.000000
     19          1.957504   1.000000
     20          2.419558   1.000000
     21          2.826797   1.000000
     22          3.629925   1.000000
     23          3.664012   1.000000
     24          4.545478   1.000000
     25          9.659263   0.000000
     26          9.743972   0.000000
     27         10.312196   0.000000
     28         11.187989   0.000000
     29         13.570046   0.000000
     30         13.714522   0.000000
     31         13.875345   0.000000
     32         14.168086   0.000000
 
  0.1250000E+00  0.1250000E+00  0.1270627E-14  0.3906250E-02
      1        -14.477201   1.000000
      2        -13.536280   1.000000
      3        -10.550388   1.000000
      4         -6.846793   1.000000
      5         -6.558851   1.000000
      6         -6.067045   1.000000
      7         -4.229324   1.000000
      8         -4.191660   1.000000
      9         -3.435321   1.000000
     10         -3.175318   1.000000
     11         -2.886162   1.000000
     12         -2.198628   1.000000
     13         -1.825747   1.000000
     14         -1.021402   1.000000
     15         -0.721194   1.000000
     16          1.283577   1.000000
     17          1.504626   1.000000
     18          1.798871   1.000000
     19          1.934063   1.000000
     20          2.432844   1.000000
     21          2.981860   1.000000
     22          3.451895   1.000000
     23          4.307751   1.000000
     24          4.387883   1.000000
     25         11.159845   0.000000
     26         11.489497   0.000000
     27         11.555627   0.000000
     28         12.445032   0.000000
     29         12.458555   0.000000
     30         12.989666   0.000000
     31         13.473846   0.000000
     32         13.828386   0.000000
 
  0.1262379E-14 -0.1250000E+00  0.1250000E+00  0.7812500E-02
      1        -14.477202   1.000000
      2        -13.536279   1.000000
      3        -10.550390   1.000000
      4         -6.846798   1.000000
      5         -6.558835   1.000000
      6         -6.067048   1.000000
      7         -4.229325   1.000000
      8         -4.191664   1.000000
      9         -3.435327   1.000000
     10         -3.175318   1.000000
     11         -2.886162   1.000000
     12         -2.198637   1.000000
     13         -1.825740   1.000000
     14         -1.021410   1.000000
     15         -0.721174   1.000000
     16          1.283580   1.000000
     17          1.504618   1.000000
     18          1.798885   1.000000
     19          1.934023   1.000000
     20          2.432840   1.000000
     21          2.981879   1.000000
     22          3.451912   1.000000
     23          4.307762   1.000000
     24          4.387868   1.000000
     25         11.159842   0.000000
     26         11.489498   0.000000
     27         11.555645   0.000000
     28         12.445017   0.000000
     29         12.458581   0.000000
     30         12.989684   0.000000
     31         13.473806   0.000000
     32         13.828296   0.000000
 
  0.2500000E+00  0.1250000E+00  0.1299121E-14  0.7812500E-02
      1        -14.319479   1.000000
      2        -13.643218   1.000000
      3        -10.771317   1.000000
      4         -6.983202   1.000000
      5         -6.557568   1.000000
      6         -6.251098   1.000000
      7         -4.033782   1.000000
      8         -3.732368   1.000000
      9         -3.535252   1.000000
     10         -2.950094   1.000000
     11         -2.600107   1.000000
     12         -2.311691   1.000000
     13         -1.681937   1.000000
     14         -1.241467   1.000000
     15         -0.031724   1.000000
     16          1.024185   1.000000
     17          1.130422   1.000000
     18          1.798177   1.000000
     19          1.972201   1.000000
     20          2.251872   1.000000
     21          2.915898   1.000000
     22          3.748618   1.000000
     23          3.872001   1.000000
     24          4.404248   1.000000
     25         10.320325   0.000000
     26         10.956383   0.000000
     27         11.108586   0.000000
     28         11.801495   0.000000
     29         12.631021   0.000000
     30         13.039820   0.000000
     31         13.484227   0.000000
     32         13.954761   0.000000
 
  0.1262379E-14 -0.1250000E+00  0.2500000E+00  0.7812500E-02
      1        -14.319481   1.000000
      2        -13.643214   1.000000
      3        -10.771320   1.000000
      4         -6.983207   1.000000
      5         -6.557552   1.000000
      6         -6.251097   1.000000
      7         -4.033788   1.000000
      8         -3.732358   1.000000
      9         -3.535259   1.000000
     10         -2.950102   1.000000
     11         -2.600108   1.000000
     12         -2.311715   1.000000
     13         -1.681938   1.000000
     14         -1.241451   1.000000
     15         -0.031699   1.000000
     16          1.024145   1.000000
     17          1.130427   1.000000
     18          1.798180   1.000000
     19          1.972202   1.000000
     20          2.251868   1.000000
     21          2.915932   1.000000
     22          3.748621   1.000000
     23          3.872012   1.000000
     24          4.404231   1.000000
     25         10.320315   0.000000
     26         10.956390   0.000000
     27         11.108610   0.000000
     28         11.801521   0.000000
     29         12.631012   0.000000
     30         13.039821   0.000000
     31         13.488430   0.000000
     32         13.954214   0.000000
 
  0.1262379E-14 -0.2500000E+00  0.1250000E+00  0.7812500E-02
      1        -14.319481   1.000000
      2        -13.643216   1.000000
      3        -10.771319   1.000000
      4         -6.983210   1.000000
      5         -6.557551   1.000000
      6         -6.251099   1.000000
      7         -4.033797   1.000000
      8         -3.732368   1.000000
      9         -3.535250   1.000000
     10         -2.950080   1.000000
     11         -2.600104   1.000000
     12         -2.311707   1.000000
     13         -1.681954   1.000000
     14         -1.241451   1.000000
     15         -0.031698   1.000000
     16          1.024168   1.000000
     17          1.130414   1.000000
     18          1.798177   1.000000
     19          1.972195   1.000000
     20          2.251871   1.000000
     21          2.915919   1.000000
     22          3.748612   1.000000
     23          3.872002   1.000000
     24          4.404247   1.000000
     25         10.320322   0.000000
     26         10.956387   0.000000
     27         11.108598   0.000000
     28         11.801516   0.000000
     29         12.631017   0.000000
     30         13.039849   0.000000
     31         13.485599   0.000000
     32         13.954979   0.000000
 
  0.3750000E+00  0.1250000E+00  0.1259406E-14  0.7812500E-02
      1        -14.145630   1.000000
      2        -13.770478   1.000000
      3        -10.932723   1.000000
      4         -7.035981   1.000000
      5         -6.689506   1.000000
      6         -6.220490   1.000000
      7         -4.307661   1.000000
      8         -3.844562   1.000000
      9         -3.123058   1.000000
     10         -2.814337   1.000000
     11         -2.149789   1.000000
     12         -1.848508   1.000000
     13         -1.566700   1.000000
     14         -1.403390   1.000000
     15         -0.038370   1.000000
     16          0.712251   1.000000
     17          0.847534   1.000000
     18          1.844094   1.000000
     19          2.142331   1.000000
     20          2.435673   1.000000
     21          3.080134   1.000000
     22          3.309105   1.000000
     23          3.866564   1.000000
     24          4.430024   1.000000
     25          9.735161   0.000000
     26         10.165623   0.000000
     27         10.441298   0.000000
     28         11.561119   0.000000
     29         12.744231   0.000000
     30         13.200003   0.000000
     31         13.416460   0.000000
     32         13.934757   0.000000
 
  0.1262379E-14 -0.1250000E+00  0.3750000E+00  0.7812500E-02
      1        -14.145635   1.000000
      2        -13.770471   1.000000
      3        -10.932727   1.000000
      4         -7.035986   1.000000
      5         -6.689503   1.000000
      6         -6.220477   1.000000
      7         -4.307668   1.000000
      8         -3.844551   1.000000
      9         -3.123076   1.000000
     10         -2.814333   1.000000
     11         -2.149800   1.000000
     12         -1.848521   1.000000
     13         -1.566711   1.000000
     14         -1.403381   1.000000
     15         -0.038387   1.000000
     16          0.712248   1.000000
     17          0.847560   1.000000
     18          1.844106   1.000000
     19          2.142352   1.000000
     20          2.435671   1.000000
     21          3.080142   1.000000
     22          3.309105   1.000000
     23          3.866573   1.000000
     24          4.430009   1.000000
     25          9.735144   0.000000
     26         10.165647   0.000000
     27         10.441310   0.000000
     28         11.561137   0.000000
     29         12.744225   0.000000
     30         13.199986   0.000000
     31         13.420410   0.000000
     32         13.934982   0.000000
 
  0.1262379E-14 -0.3750000E+00  0.1250000E+00  0.7812500E-02
      1        -14.145631   1.000000
      2        -13.770477   1.000000
      3        -10.932723   1.000000
      4         -7.035989   1.000000
      5         -6.689496   1.000000
      6         -6.220490   1.000000
      7         -4.307671   1.000000
      8         -3.844557   1.000000
      9         -3.123053   1.000000
     10         -2.814347   1.000000
     11         -2.149780   1.000000
     12         -1.848517   1.000000
     13         -1.566696   1.000000
     14         -1.403384   1.000000
     15         -0.038380   1.000000
     16          0.712226   1.000000
     17          0.847574   1.000000
     18          1.844099   1.000000
     19          2.142322   1.000000
     20          2.435673   1.000000
     21          3.080132   1.000000
     22          3.309095   1.000000
     23          3.866570   1.000000
     24          4.430024   1.000000
     25          9.735155   0.000000
     26         10.165637   0.000000
     27         10.441297   0.000000
     28         11.561134   0.000000
     29         12.744236   0.000000
     30         13.199988   0.000000
     31         13.412708   0.000000
     32         13.936896   0.000000
 
  0.5000000E+00  0.1250000E+00  0.1308373E-14  0.7812500E-02
      1        -14.129681   1.000000
      2        -13.778071   1.000000
      3        -10.931398   1.000000
      4         -7.005039   1.000000
      5         -6.807409   1.000000
      6         -6.241602   1.000000
      7         -4.201165   1.000000
      8         -4.013060   1.000000
      9         -3.362219   1.000000
     10         -2.628467   1.000000
     11         -2.014666   1.000000
     12         -1.834935   1.000000
     13         -1.492901   1.000000
     14         -1.249869   1.000000
     15         -0.046559   1.000000
     16          0.743218   1.000000
     17          1.247579   1.000000
     18          1.425476   1.000000
     19          2.082940   1.000000
     20          2.588213   1.000000
     21          2.885392   1.000000
     22          3.450748   1.000000
     23          3.791713   1.000000
     24          4.438971   1.000000
     25          9.780041   0.000000
     26          9.785979   0.000000
     27         10.322070   0.000000
     28         11.482200   0.000000
     29         12.915420   0.000000
     30         13.122882   0.000000
     31         13.221412   0.000000
     32         14.105312   0.000000
 
  0.1262379E-14 -0.1250000E+00  0.5000000E+00  0.7812500E-02
      1        -14.129686   1.000000
      2        -13.778065   1.000000
      3        -10.931401   1.000000
      4         -7.005043   1.000000
      5         -6.807407   1.000000
      6         -6.241594   1.000000
      7         -4.201164   1.000000
      8         -4.013053   1.000000
      9         -3.362230   1.000000
     10         -2.628465   1.000000
     11         -2.014686   1.000000
     12         -1.834944   1.000000
     13         -1.492905   1.000000
     14         -1.249875   1.000000
     15         -0.046562   1.000000
     16          0.743229   1.000000
     17          1.247591   1.000000
     18          1.425478   1.000000
     19          2.082965   1.000000
     20          2.588215   1.000000
     21          2.885401   1.000000
     22          3.450754   1.000000
     23          3.791715   1.000000
     24          4.438957   1.000000
     25          9.780026   0.000000
     26          9.785994   0.000000
     27         10.322086   0.000000
     28         11.482210   0.000000
     29         12.915415   0.000000
     30         13.123025   0.000000
     31         13.221365   0.000000
     32         14.124047   0.000000
 
  0.1262379E-14  0.5000000E+00  0.1250000E+00  0.7812500E-02
      1        -14.129680   1.000000
      2        -13.778072   1.000000
      3        -10.931397   1.000000
      4         -7.005044   1.000000
      5         -6.807400   1.000000
      6         -6.241613   1.000000
      7         -4.201169   1.000000
      8         -4.013045   1.000000
      9         -3.362232   1.000000
     10         -2.628455   1.000000
     11         -2.014673   1.000000
     12         -1.834915   1.000000
     13         -1.492922   1.000000
     14         -1.249866   1.000000
     15         -0.046547   1.000000
     16          0.743212   1.000000
     17          1.247586   1.000000
     18          1.425460   1.000000
     19          2.082941   1.000000
     20          2.588218   1.000000
     21          2.885395   1.000000
     22          3.450753   1.000000
     23          3.791703   1.000000
     24          4.438971   1.000000
     25          9.780052   0.000000
     26          9.785973   0.000000
     27         10.322070   0.000000
     28         11.482200   0.000000
     29         12.915434   0.000000
     30         13.122672   0.000000
     31         13.221142   0.000000
     32         14.141525   0.000000
 
 -0.3750000E+00  0.1250000E+00  0.1223349E-14  0.7812500E-02
      1        -14.294033   1.000000
      2        -13.649862   1.000000
      3        -10.761054   1.000000
      4         -6.929152   1.000000
      5         -6.840711   1.000000
      6         -6.300993   1.000000
      7         -4.130722   1.000000
      8         -3.830317   1.000000
      9         -3.686498   1.000000
     10         -2.882075   1.000000
     11         -2.609746   1.000000
     12         -1.828775   1.000000
     13         -1.391343   1.000000
     14         -1.126853   1.000000
     15          0.355322   1.000000
     16          0.901081   1.000000
     17          1.105911   1.000000
     18          1.455698   1.000000
     19          2.146135   1.000000
     20          2.579261   1.000000
     21          2.969007   1.000000
     22          3.212771   1.000000
     23          3.868267   1.000000
     24          4.403064   1.000000
     25         10.191969   0.000000
     26         10.407864   0.000000
     27         10.797425   0.000000
     28         11.542156   0.000000
     29         12.930070   0.000000
     30         13.007410   0.000000
     31         13.042018   0.000000
     32         14.329178   0.000000
 
  0.1262379E-14 -0.1250000E+00 -0.3750000E+00  0.7812500E-02
      1        -14.294034   1.000000
      2        -13.649859   1.000000
      3        -10.761056   1.000000
      4         -6.929146   1.000000
      5         -6.840719   1.000000
      6         -6.300990   1.000000
      7         -4.130709   1.000000
      8         -3.830309   1.000000
      9         -3.686503   1.000000
     10         -2.882107   1.000000
     11         -2.609756   1.000000
     12         -1.828762   1.000000
     13         -1.391347   1.000000
     14         -1.126850   1.000000
     15          0.355323   1.000000
     16          0.901082   1.000000
     17          1.105906   1.000000
     18          1.455714   1.000000
     19          2.146145   1.000000
     20          2.579257   1.000000
     21          2.969008   1.000000
     22          3.212785   1.000000
     23          3.868282   1.000000
     24          4.403048   1.000000
     25         10.191967   0.000000
     26         10.407866   0.000000
     27         10.797438   0.000000
     28         11.542166   0.000000
     29         12.930887   0.000000
     30         13.008513   0.000000
     31         13.046871   0.000000
     32         14.564919   0.000000
 
  0.1262379E-14  0.3750000E+00  0.1250000E+00  0.7812500E-02
      1        -14.294031   1.000000
      2        -13.649863   1.000000
      3        -10.761053   1.000000
      4         -6.929142   1.000000
      5         -6.840722   1.000000
      6         -6.301005   1.000000
      7         -4.130712   1.000000
      8         -3.830309   1.000000
      9         -3.686501   1.000000
     10         -2.882083   1.000000
     11         -2.609745   1.000000
     12         -1.828752   1.000000
     13         -1.391341   1.000000
     14         -1.126868   1.000000
     15          0.355302   1.000000
     16          0.901115   1.000000
     17          1.105892   1.000000
     18          1.455708   1.000000
     19          2.146139   1.000000
     20          2.579257   1.000000
     21          2.968997   1.000000
     22          3.212776   1.000000
     23          3.868268   1.000000
     24          4.403062   1.000000
     25         10.191974   0.000000
     26         10.407863   0.000000
     27         10.797425   0.000000
     28         11.542143   0.000000
     29         12.930634   0.000000
     30         13.007832   0.000000
     31         13.045555   0.000000
     32         14.523378   0.000000
 
 -0.2500000E+00  0.1250000E+00  0.1249132E-14  0.7812500E-02
      1        -14.456843   1.000000
      2        -13.539676   1.000000
      3        -10.528491   1.000000
      4         -6.943013   1.000000
      5         -6.647405   1.000000
      6         -6.223211   1.000000
      7         -4.413866   1.000000
      8         -4.120837   1.000000
      9         -3.734494   1.000000
     10         -3.021889   1.000000
     11         -2.495954   1.000000
     12         -1.969992   1.000000
     13         -1.657758   1.000000
     14         -0.909494   1.000000
     15         -0.569163   1.000000
     16          1.139640   1.000000
     17          1.543936   1.000000
     18          1.837804   1.000000
     19          2.033831   1.000000
     20          2.511884   1.000000
     21          3.064297   1.000000
     22          3.584891   1.000000
     23          3.673429   1.000000
     24          4.388135   1.000000
     25         11.017677   0.000000
     26         11.135177   0.000000
     27         11.393667   0.000000
     28         11.842974   0.000000