       N       E                     dE             d eps       ncg     rms          ort
DAV:   1    -0.217390848049E+03   -0.21739E+03   -0.25319E+04  4800   0.140E+03
DAV:   2    -0.428207447342E+03   -0.21082E+03   -0.20859E+03  4800   0.210E+02
DAV:   3    -0.430954829232E+03   -0.27474E+01   -0.27474E+01  4800   0.338E+01
DAV:   4    -0.430963267926E+03   -0.84387E-02   -0.84387E-02  4800   0.149E+00
DAV:   5    -0.128823020350E+03    0.30214E+03   -0.52460E+00  4800   0.164E+01
SDA:   6    -0.114510412916E+03    0.14313E+02   -0.52460E+00  4800   0.237E+02 0.000E+00
CGA:   7    -0.120028840273E+03   -0.55184E+01   -0.55290E+01  4800   0.126E+01-0.226E+00
CGA:   8    -0.120494746573E+03   -0.46591E+00   -0.46765E+00  4800   0.366E+00-0.107E-01
CGA:   9    -0.120668564825E+03   -0.17382E+00   -0.17509E+00  4800   0.972E-01-0.448E-02
CGA:  10    -0.120714108679E+03   -0.45544E-01   -0.45689E-01  4800   0.203E-01-0.542E-03
CGA:  11    -0.120722724101E+03   -0.86154E-02   -0.86259E-02  4800   0.382E-02-0.511E-04
CGA:  12    -0.120724207312E+03   -0.14832E-02   -0.14835E-02  4800   0.716E-03-0.244E-05
CGA:  13    -0.120724534290E+03   -0.32698E-03   -0.32608E-03  4800   0.149E-03 0.433E-05
CGA:  14    -0.120724595456E+03   -0.61165E-04   -0.60861E-04  4800   0.385E-04 0.214E-05
CGA:  15    -0.120724610633E+03   -0.15177E-04   -0.15155E-04  4800   0.103E-04 0.184E-06
CGA:  16    -0.120724614629E+03   -0.39961E-05   -0.40151E-05  4800   0.300E-05-0.168E-06
   1 F= -.12072461E+03 E0= -.12072461E+03  d E =-.120725E+03
       N       E                     dE             d eps       ncg     rms          ort
SDA:   1    -0.120579443849E+03    0.14517E+00    0.00000E+00  4800   0.372E+00 0.000E+00
CGA:   2    -0.120712226413E+03   -0.13278E+00   -0.13278E+00  4800   0.491E-01 0.115E-04
CGA:   3    -0.120728345217E+03   -0.16119E-01   -0.16116E-01  4800   0.780E-02 0.462E-04
CGA:   4    -0.120730926227E+03   -0.25810E-02   -0.25803E-02  4800   0.143E-02 0.175E-04
CGA:   5    -0.120731474110E+03   -0.54788E-03   -0.54750E-03  4800   0.401E-03 0.466E-05
CGA:   6    -0.120731649033E+03   -0.17492E-03   -0.17517E-03  4800   0.130E-03-0.184E-05
CGA:   7    -0.120731694092E+03   -0.45059E-04   -0.45142E-04  4800   0.242E-04-0.198E-05
CGA:   8    -0.120731702537E+03   -0.84459E-05   -0.84622E-05  4800   0.485E-05-0.348E-06
   2 F= -.12073170E+03 E0= -.12073170E+03  d E =-.708791E-02
       N       E                     dE             d eps       ncg     rms          ort
SDA:   1    -0.120714887322E+03    0.16807E-01    0.00000E+00  4800   0.636E-01 0.000E+00
CGA:   2    -0.120741248804E+03   -0.26361E-01   -0.26361E-01  4800   0.901E-02-0.369E-05
CGA:   3    -0.120744178530E+03   -0.29297E-02   -0.29298E-02  4800   0.137E-02-0.949E-05
CGA:   4    -0.120744648109E+03   -0.46958E-03   -0.46986E-03  4800   0.188E-03-0.101E-04
CGA:   5    -0.120744740102E+03   -0.91994E-04   -0.92378E-04  4800   0.629E-04-0.216E-05
CGA:   6    -0.120744766250E+03   -0.26148E-04   -0.25962E-04  4800   0.144E-04 0.205E-05
CGA:   7    -0.120744771271E+03   -0.50210E-05   -0.50173E-05  4800   0.263E-05 0.702E-06
   3 F= -.12074477E+03 E0= -.12074477E+03  d E =-.201566E-01
       N       E                     dE             d eps       ncg     rms          ort
SDA:   1    -0.120732481975E+03    0.12284E-01    0.00000E+00  4800   0.320E-01 0.000E+00
CGA:   2    -0.120743258983E+03   -0.10777E-01   -0.10777E-01  4800   0.448E-02 0.112E-04
CGA:   3    -0.120744901427E+03   -0.16424E-02   -0.16425E-02  4800   0.384E-03-0.301E-05
CGA:   4    -0.120745028936E+03   -0.12751E-03   -0.12751E-03  4800   0.837E-04 0.128E-05
CGA:   5    -0.120745056026E+03   -0.27090E-04   -0.27104E-04  4800   0.227E-04 0.104E-05
CGA:   6    -0.120745065380E+03   -0.93543E-05   -0.93599E-05  4800   0.628E-05-0.791E-07
   4 F= -.12074507E+03 E0= -.12074507E+03  d E =-.294109E-03
       N       E                     dE             d eps       ncg     rms          ort
SDA:   1    -0.120743172116E+03    0.18839E-02    0.00000E+00  4800   0.483E-02 0.000E+00
CGA:   2    -0.120745078909E+03   -0.19068E-02   -0.19071E-02  4800   0.792E-03-0.535E-05
CGA:   3    -0.120745368348E+03   -0.28944E-03   -0.28941E-03  4800   0.598E-04 0.122E-05
CGA:   4    -0.120745391187E+03   -0.22839E-04   -0.22862E-04  4800   0.132E-04-0.608E-06
CGA:   5    -0.120745396261E+03   -0.50743E-05   -0.50891E-05  4800   0.418E-05-0.332E-06
   5 F= -.12074540E+03 E0= -.12074540E+03  d E =-.624990E-03
       N       E                     dE             d eps       ncg     rms          ort
SDA:   1    -0.120745009389E+03    0.38180E-03    0.00000E+00  4800   0.924E-03 0.000E+00
CGA:   2    -0.120745398896E+03   -0.38951E-03   -0.38959E-03  4800   0.148E-03-0.108E-05
CGA:   3    -0.120745450543E+03   -0.51646E-04   -0.51649E-04  4800   0.126E-04 0.484E-06
CGA:   4    -0.120745455568E+03   -0.50253E-05   -0.50395E-05  4800   0.310E-05-0.314E-06
   6 F= -.12074546E+03 E0= -.12074546E+03  d E =-.593067E-04
