 vasp.6.3.2 27Jun22 (build Jan 18 2024 14:18:24) complex                         
 executed on    LinuxNV_CrayMPICH date 2024.05.24  10:43:32
 running on   32 total cores
 distrk:  each k-point on   32 cores,    1 groups
 distr:  one band on NCORE=   1 cores,   32 groups


--------------------------------------------------------------------------------------------------------


 INCAR:
   SYSTEM = B12BeN2
   ENCUT = 500
   PREC = Accurate
   ISTART = 0
   ICHARG = 2
   LCHARG = .FALSE.
   LWAVE = .FALSE.
   LHFCALC = .TRUE.
   HFSCREEN = 0.2
   AEXX = 0.25
   ALGO = All
   GGA = PE
   ISIF = 3
   NSW = 1000
   IBRION = 2
   EDIFFG = -1.0E-2
   EDIFF = 1E-5
   ISMEAR = 0
   SIGMA = 0.01

 POTCAR:    PAW_PBE Be 06Sep2000                  
 POTCAR:    PAW_PBE B 06Sep2000                   
 POTCAR:    PAW_PBE N 08Apr2002                   
 -----------------------------------------------------------------------------
|                                                                             |
|           W    W    AA    RRRRR   N    N  II  N    N   GGGG   !!!           |
|           W    W   A  A   R    R  NN   N  II  NN   N  G    G  !!!           |
|           W    W  A    A  R    R  N N  N  II  N N  N  G       !!!           |
|           W WW W  AAAAAA  RRRRR   N  N N  II  N  N N  G  GGG   !            |
|           WW  WW  A    A  R   R   N   NN  II  N   NN  G    G                |
|           W    W  A    A  R    R  N    N  II  N    N   GGGG   !!!           |
|                                                                             |
|     For optimal performance we recommend to set                             |
|       NCORE = 2 up to number-of-cores-per-socket                            |
|     NCORE specifies how many cores store one orbital (NPAR=cpu/NCORE).      |
|     This setting can greatly improve the performance of VASP for DFT.       |
|     The default, NCORE=1 might be grossly inefficient on modern             |
|     multi-core architectures or massively parallel machines. Do your        |
|     own testing! More info at https://www.vasp.at/wiki/index.php/NCORE      |
|     Unfortunately you need to use the default for GW and RPA                |
|     calculations (for HF NCORE is supported but not extensively tested      |
|     yet).                                                                   |
|                                                                             |
 -----------------------------------------------------------------------------

 POTCAR:    PAW_PBE Be 06Sep2000                  
   SHA256 =  98a2d1e63100a984719ed1fa4aa623d62d7fd86152f07ada9bb3796889d1bbc8 Be/POTCAR             
   COPYR  = (c) Copyright 06Sep2000 Georg Kresse                                                    
   COPYR  = This file is part of the software VASP. Any use, copying, and all other rights are regul
   COPYR  = If you do not have a valid VASP license, you may not use, copy or distribute this file. 
   VRHFIN =Be: s2p0                                                                                 
   LEXCH  = PE                                                                                      
   EATOM  =    27.4793 eV,    2.0197 Ry                                                             
                                                                                                    
   TITEL  = PAW_PBE Be 06Sep2000                                                                    
   LULTRA =        F    use ultrasoft PP ?                                                          
   IUNSCR =        1    unscreen: 0-lin 1-nonlin 2-no                                               
   RPACOR =    1.580    partial core radius                                                         
   POMASS =    9.013; ZVAL   =    2.000    mass and valenz                                          
   RCORE  =    1.900    outmost cutoff radius                                                       
   RWIGS  =    1.880; RWIGS  =    0.995    wigner-seitz radius (au A)                               
   ENMAX  =  247.543; ENMIN  =  185.658 eV                                                          
   ICORE  =        2    local potential                                                             
   LCOR   =        T    correct aug charges                                                         
   LPAW   =        T    paw PP                                                                      
   EAUG   =  318.781                                                                                
   DEXC   =    0.000                                                                                
   RMAX   =    1.944    core radius for proj-oper                                                   
   RAUG   =    1.300    factor for augmentation sphere                                              
   RDEP   =    2.003    radius for radial grids                                                     
   RDEPT  =    1.802    core radius for aug-charge                                                  
                                                                                                    
   Atomic configuration                                                                             
    4 entries                                                                                       
     n  l   j            E        occ.                                                              
     1  0  0.50      -106.2287   2.0000                                                             
     2  0  0.50        -5.6162   1.9900                                                             
     2  1  0.50        -2.0244   0.0100                                                             
     3  2  1.50        -1.3606   0.0000                                                             
   Description                                                                                      
     l       E           TYP  RCUT    TYP  RCUT                                                     
     0     -5.6161739     23  1.900                                                                 
     0     27.2116520     23  1.900                                                                 
     1     -2.0243505     23  1.900                                                                 
     1     27.2116520     23  1.900                                                                 
     2     -1.3605826     15  1.500                                                                 
  local pseudopotential read in
  partial core-charges read in
  partial kinetic energy density read in
  atomic valenz-charges read in
  non local Contribution for L=            0  read in
    real space projection operators read in
  non local Contribution for L=            0  read in
    real space projection operators read in
  non local Contribution for L=            1  read in
    real space projection operators read in
  non local Contribution for L=            1  read in
    real space projection operators read in
    PAW grid and wavefunctions read in
 
   number of l-projection  operators is LMAX  =            4
   number of lm-projection operators is LMMAX =            8
 
 POTCAR:    PAW_PBE B 06Sep2000                   
   SHA256 =  a32ced30f5ae56fd4d10b4325ff17eb3e4e38ee0f4288bc219fb012fddfa6e97 B/POTCAR              
   COPYR  = (c) Copyright 06Sep2000 Georg Kresse                                                    
   COPYR  = This file is part of the software VASP. Any use, copying, and all other rights are regul
   COPYR  = If you do not have a valid VASP license, you may not use, copy or distribute this file. 
   VRHFIN =B: s2p1                                                                                  
   LEXCH  = PE                                                                                      
   EATOM  =    71.1703 eV,    5.2309 Ry                                                             
                                                                                                    
   TITEL  = PAW_PBE B 06Sep2000                                                                     
   LULTRA =        F    use ultrasoft PP ?                                                          
   IUNSCR =        1    unscreen: 0-lin 1-nonlin 2-no                                               
   RPACOR =    1.200    partial core radius                                                         
   POMASS =   10.811; ZVAL   =    3.000    mass and valenz                                          
   RCORE  =    1.700    outmost cutoff radius                                                       
   RWIGS  =    1.710; RWIGS  =    0.905    wigner-seitz radius (au A)                               
   ENMAX  =  318.614; ENMIN  =  238.960 eV                                                          
   ICORE  =        2    local potential                                                             
   LCOR   =        T    correct aug charges                                                         
   LPAW   =        T    paw PP                                                                      
   EAUG   =  535.514                                                                                
   DEXC   =    0.000                                                                                
   RMAX   =    1.732    core radius for proj-oper                                                   
   RAUG   =    1.300    factor for augmentation sphere                                              
   RDEP   =    1.757    radius for radial grids                                                     
   RDEPT  =    1.436    core radius for aug-charge                                                  
                                                                                                    
   Atomic configuration                                                                             
    4 entries                                                                                       
     n  l   j            E        occ.                                                              
     1  0  0.50      -180.5896   2.0000                                                             
     2  0  0.50        -9.4431   2.0000                                                             
     2  1  0.50        -3.6068   1.0000                                                             
     3  2  1.50        -4.0817   0.0000                                                             
   Description                                                                                      
     l       E           TYP  RCUT    TYP  RCUT                                                     
     0     -9.4430752     23  1.500                                                                 
     0      0.8675899     23  1.500                                                                 
     1     -3.6067955     23  1.700                                                                 
     1      6.1086146     23  1.700                                                                 
     2     -4.0817478      7  1.700                                                                 
  local pseudopotential read in
  partial core-charges read in
  partial kinetic energy density read in
  atomic valenz-charges read in
  non local Contribution for L=            0  read in
    real space projection operators read in
  non local Contribution for L=            0  read in
    real space projection operators read in
  non local Contribution for L=            1  read in
    real space projection operators read in
  non local Contribution for L=            1  read in
    real space projection operators read in
    PAW grid and wavefunctions read in
 
   number of l-projection  operators is LMAX  =            4
   number of lm-projection operators is LMMAX =            8
 
 POTCAR:    PAW_PBE N 08Apr2002                   
   SHA256 =  e053789ff3a61a86a1b75d8a110fcc91f86041011e7b0817c7c99e4e8a6349d7 N/POTCAR              
   COPYR  = (c) Copyright 08Apr2002 Georg Kresse                                                    
   COPYR  = This file is part of the software VASP. Any use, copying, and all other rights are regul
   COPYR  = If you do not have a valid VASP license, you may not use, copy or distribute this file. 
   VRHFIN =N: s2p3                                                                                  
   LEXCH  = PE                                                                                      
   EATOM  =   264.5486 eV,   19.4438 Ry                                                             
                                                                                                    
   TITEL  = PAW_PBE N 08Apr2002                                                                     
   LULTRA =        F    use ultrasoft PP ?                                                          
   IUNSCR =        1    unscreen: 0-lin 1-nonlin 2-no                                               
   RPACOR =    1.200    partial core radius                                                         
   POMASS =   14.001; ZVAL   =    5.000    mass and valenz                                          
   RCORE  =    1.500    outmost cutoff radius                                                       
   RWIGS  =    1.400; RWIGS  =    0.741    wigner-seitz radius (au A)                               
   ENMAX  =  400.000; ENMIN  =  300.000 eV                                                          
   ICORE  =        2    local potential                                                             
   LCOR   =        T    correct aug charges                                                         
   LPAW   =        T    paw PP                                                                      
   EAUG   =  627.112                                                                                
   DEXC   =    0.000                                                                                
   RMAX   =    1.529    core radius for proj-oper                                                   
   RAUG   =    1.300    factor for augmentation sphere                                              
   RDEP   =    1.514    radius for radial grids                                                     
   RDEPT  =    1.338    core radius for aug-charge                                                  
                                                                                                    
   Atomic configuration                                                                             
    4 entries                                                                                       
     n  l   j            E        occ.                                                              
     1  0  0.50      -384.7179   2.0000                                                             
     2  0  0.50       -18.5828   2.0000                                                             
     2  1  0.50        -7.0898   3.0000                                                             
     3  2  1.50        -6.8029   0.0000                                                             
   Description                                                                                      
     l       E           TYP  RCUT    TYP  RCUT                                                     
     0    -18.5828119     23  1.200                                                                 
     0    -13.5018863     23  1.200                                                                 
     1     -7.0897853     23  1.500                                                                 
     1      9.5240782     23  1.500                                                                 
     2     -6.8029130      7  1.500                                                                 
  local pseudopotential read in
  partial core-charges read in
  partial kinetic energy density read in
  atomic valenz-charges read in
  non local Contribution for L=            0  read in
    real space projection operators read in
  non local Contribution for L=            0  read in
    real space projection operators read in
  non local Contribution for L=            1  read in
    real space projection operators read in
  non local Contribution for L=            1  read in
    real space projection operators read in
    PAW grid and wavefunctions read in
 
   number of l-projection  operators is LMAX  =            4
   number of lm-projection operators is LMMAX =            8
 
  PAW_PBE Be 06Sep2000                  :
 energy of atom  1       EATOM=  -27.4793
 kinetic energy error for atom=    0.0001 (will be added to EATOM!!)
  PAW_PBE B 06Sep2000                   :
 energy of atom  2       EATOM=  -71.1703
 kinetic energy error for atom=    0.0012 (will be added to EATOM!!)
  PAW_PBE N 08Apr2002                   :
 energy of atom  3       EATOM= -264.5486
 kinetic energy error for atom=    0.0138 (will be added to EATOM!!)
 
 
 POSCAR: B12BeN2.cif
  positions in direct lattice
  velocities in cartesian coordinates
  No initial velocities read in
 exchange correlation table for  LEXCH =        8
   RHO(1)=    0.500       N(1)  =     2000
   RHO(2)=  100.500       N(2)  =     4000
 


--------------------------------------------------------------------------------------------------------


 ion  position               nearest neighbor table
   1  0.500  0.500  0.500-  14 1.55  15 1.55
   2  0.669  0.004  0.004-  13 1.74   3 1.79   7 1.79  11 1.81   5 1.82   9 1.82
   3  0.996  0.331  0.004-  12 1.74   2 1.79   7 1.79  10 1.81   4 1.82   9 1.82
   4  0.324  0.197  0.197-  14 1.54   6 1.75  10 1.75  13 1.81   7 1.82   3 1.82
   5  0.803  0.676  0.197-  14 1.54  11 1.75   6 1.75  12 1.81   7 1.82   2 1.82
   6  0.197  0.803  0.324-  15 1.54   4 1.75   5 1.75   7 1.81  13 1.82  12 1.82
   7  0.996  0.004  0.331-   8 1.74   2 1.79   3 1.79   6 1.81   5 1.82   4 1.82
   8  0.004  0.996  0.669-   7 1.74  13 1.79  12 1.79   9 1.81  10 1.82  11 1.82
   9  0.803  0.197  0.676-  14 1.54  10 1.75  11 1.75   8 1.81   3 1.82   2 1.82
  10  0.197  0.324  0.803-  15 1.54   9 1.75   4 1.75   3 1.81   8 1.82  13 1.82
  11  0.676  0.803  0.803-  15 1.54   5 1.75   9 1.75   2 1.81   8 1.82  12 1.82
  12  0.004  0.669  0.996-   3 1.74  13 1.79   8 1.79   5 1.81  11 1.82   6 1.82
  13  0.331  0.996  0.996-   2 1.74  12 1.79   8 1.79   4 1.81  10 1.82   6 1.82
  14  0.624  0.376  0.376-   4 1.54   5 1.54   9 1.54   1 1.55
  15  0.376  0.624  0.624-  11 1.54  10 1.54   6 1.54   1 1.55
 
  LATTYP: Found a trigonal (rhomboedric) cell.
 ALAT       =     5.2350000000
 COS(alpha) =     0.4515363909
  
  Lattice vectors:
  
 A1 = (  -2.3637930064,   4.6709429051,   0.0000000000)
 A2 = (  -5.2350000000,   0.0000000000,   0.0000000000)
 A3 = (  -2.3637930064,   1.4530126249,   4.4391960911)


Analysis of symmetry for initial positions (statically):
=====================================================================
 Subroutine PRICEL returns:
 Original cell was already a primitive cell.
 

 Routine SETGRP: Setting up the symmetry group for a 
 trigonal (rhombohedral) supercell.


 Subroutine GETGRP returns: Found  2 space group operations
 (whereof  2 operations were pure point group operations)
 out of a pool of 12 trial point group operations.


The static configuration has the point symmetry C_2 .


Analysis of symmetry for dynamics (positions and initial velocities):
=====================================================================
 Subroutine PRICEL returns:
 Original cell was already a primitive cell.
 

 Routine SETGRP: Setting up the symmetry group for a 
 trigonal (rhombohedral) supercell.


 Subroutine GETGRP returns: Found  2 space group operations
 (whereof  2 operations were pure point group operations)
 out of a pool of 12 trial point group operations.


The dynamic configuration has the point symmetry C_2 .


 Subroutine INISYM returns: Found  2 space group operations
 (whereof  2 operations are pure point group operations),
 and found     1 'primitive' translations


----------------------------------------------------------------------------------------

                                     Primitive cell                                     

  volume of cell :     108.5489

  direct lattice vectors                    reciprocal lattice vectors
     5.235000000  0.000000000  0.000000000     0.191021968  0.096669216  0.070074579
    -2.363793006  4.670942905  0.000000000     0.000000000  0.214089536 -0.070074579
    -2.363793006  1.453012625  4.439196091     0.000000000 -0.000000000  0.225266012

  length of vectors
     5.235000000  5.235000000  5.235000000     0.225266012  0.225266012  0.225266012

  position of ions in fractional coordinates (direct lattice)
     0.500000000  0.500000000  0.500000000
     0.669250000  0.003670000  0.003670000
     0.996330000  0.330750000  0.003670000
     0.323600000  0.197060000  0.197060000
     0.802940000  0.676400000  0.197060000
     0.197060000  0.802950000  0.323600000
     0.996330000  0.003670000  0.330750000
     0.003670000  0.996330000  0.669250000
     0.802950000  0.197060000  0.676400000
     0.197060000  0.323600000  0.802940000
     0.676400000  0.802940000  0.802940000
     0.003670000  0.669250000  0.996330000
     0.330750000  0.996330000  0.996330000
     0.623700000  0.376300000  0.376300000
     0.376300000  0.623700000  0.623700000

  ion indices of the primitive-cell ions
   primitive index   ion index
                 1           1
                 2           2
                 3           3
                 4           4
                 5           5
                 6           6
                 7           7
                 8           8
                 9           9
                10          10
                11          11
                12          12
                13          13
                14          14
                15          15

----------------------------------------------------------------------------------------

 
 
 KPOINTS: Auto                                    

Automatic generation of k-mesh.
 Grid dimensions read from file:
 generate k-points for:    8    8    8

 Generating k-lattice:

  Cartesian coordinates                     Fractional coordinates (reciprocal lattice)
     0.023877746  0.012083652  0.008759322     0.125000000 -0.000000000 -0.000000000
     0.000000000  0.026761192 -0.008759322     0.000000000  0.125000000 -0.000000000
     0.000000000 -0.000000000  0.028158252     0.000000000  0.000000000  0.125000000

  Length of vectors
     0.028158252  0.028158252  0.028158252

  Shift w.r.t. Gamma in fractional coordinates (k-lattice)
     0.000000000  0.000000000  0.000000000

 
 Subroutine IBZKPT returns following result:
 ===========================================
 
 Found    150 irreducible k-points:
 
 Following reciprocal coordinates:
            Coordinates               Weight
  0.000000  0.000000  0.000000      1.000000
  0.125000  0.000000  0.000000      4.000000
  0.000000  0.000000  0.125000      2.000000
  0.250000  0.000000  0.000000      4.000000
  0.000000  0.000000  0.250000      2.000000
  0.375000  0.000000  0.000000      4.000000
  0.000000  0.000000  0.375000      2.000000
  0.500000  0.000000  0.000000      2.000000
  0.000000  0.000000  0.500000      1.000000
  0.125000  0.125000  0.000000      2.000000
  0.000000 -0.125000  0.125000      4.000000
  0.250000  0.125000  0.000000      4.000000
  0.000000 -0.125000  0.250000      4.000000
  0.000000 -0.250000  0.125000      4.000000
  0.375000  0.125000  0.000000      4.000000
  0.000000 -0.125000  0.375000      4.000000
  0.000000 -0.375000  0.125000      4.000000
  0.500000  0.125000  0.000000      4.000000
  0.000000 -0.125000  0.500000      4.000000
  0.000000  0.500000  0.125000      4.000000
 -0.375000  0.125000  0.000000      4.000000
  0.000000 -0.125000 -0.375000      4.000000
  0.000000  0.375000  0.125000      4.000000
 -0.250000  0.125000  0.000000      4.000000
  0.000000 -0.125000 -0.250000      4.000000
  0.000000  0.250000  0.125000      4.000000
 -0.125000  0.125000  0.000000      2.000000
  0.000000 -0.125000 -0.125000      4.000000
  0.250000  0.250000  0.000000      2.000000
  0.000000 -0.250000  0.250000      4.000000
  0.375000  0.250000  0.000000      4.000000
  0.000000 -0.250000  0.375000      4.000000
  0.000000 -0.375000  0.250000      4.000000
  0.500000  0.250000  0.000000      4.000000
  0.000000 -0.250000  0.500000      4.000000
  0.000000  0.500000  0.250000      4.000000
 -0.375000  0.250000  0.000000      4.000000
  0.000000 -0.250000 -0.375000      4.000000
  0.000000  0.375000  0.250000      4.000000
 -0.250000  0.250000  0.000000      2.000000
  0.000000 -0.250000 -0.250000      4.000000
  0.375000  0.375000  0.000000      2.000000
  0.000000 -0.375000  0.375000      4.000000
  0.500000  0.375000  0.000000      4.000000
  0.000000 -0.375000  0.500000      4.000000
  0.000000  0.500000  0.375000      4.000000
 -0.375000  0.375000  0.000000      2.000000
  0.000000 -0.375000 -0.375000      4.000000
  0.500000  0.500000  0.000000      1.000000
  0.000000  0.500000  0.500000      2.000000
  0.125000  0.125000  0.125000      4.000000
  0.125000 -0.125000  0.125000      2.000000
  0.250000  0.125000  0.125000      4.000000
  0.125000 -0.125000  0.250000      2.000000
  0.375000  0.125000  0.125000      4.000000
  0.125000 -0.125000  0.375000      2.000000
  0.500000  0.125000  0.125000      4.000000
  0.125000 -0.125000  0.500000      2.000000
 -0.375000  0.125000  0.125000      4.000000
  0.125000 -0.125000 -0.375000      2.000000
 -0.250000  0.125000  0.125000      4.000000
  0.125000 -0.125000 -0.250000      2.000000
 -0.125000  0.125000  0.125000      2.000000
  0.125000  0.250000  0.125000      4.000000
  0.125000 -0.250000  0.125000      4.000000
 -0.125000 -0.125000  0.250000      4.000000
  0.250000  0.250000  0.125000      4.000000
  0.125000 -0.250000  0.250000      4.000000
 -0.125000 -0.250000  0.250000      4.000000
  0.375000  0.250000  0.125000      4.000000
  0.125000 -0.250000  0.375000      4.000000
 -0.125000 -0.375000  0.250000      4.000000
  0.500000  0.250000  0.125000      4.000000
  0.125000 -0.250000  0.500000      4.000000
 -0.125000  0.500000  0.250000      4.000000
 -0.375000  0.250000  0.125000      4.000000
  0.125000 -0.250000 -0.375000      4.000000
 -0.125000  0.375000  0.250000      4.000000
 -0.250000  0.250000  0.125000      2.000000
  0.125000 -0.250000 -0.250000      4.000000
  0.125000  0.375000  0.125000      4.000000
  0.125000 -0.375000  0.125000      4.000000
 -0.125000 -0.125000  0.375000      4.000000
  0.250000  0.375000  0.125000      4.000000
  0.125000 -0.375000  0.250000      4.000000
 -0.125000 -0.250000  0.375000      4.000000
  0.375000  0.375000  0.125000      4.000000
  0.125000 -0.375000  0.375000      4.000000
 -0.125000 -0.375000  0.375000      4.000000
  0.500000  0.375000  0.125000      4.000000
  0.125000 -0.375000  0.500000      4.000000
 -0.125000  0.500000  0.375000      4.000000
 -0.375000  0.375000  0.125000      2.000000
  0.125000 -0.375000 -0.375000      4.000000
  0.125000  0.500000  0.125000      4.000000
 -0.125000 -0.125000  0.500000      2.000000
  0.250000  0.500000  0.125000      4.000000
  0.125000  0.500000  0.250000      4.000000
 -0.125000 -0.250000  0.500000      4.000000
  0.375000  0.500000  0.125000      4.000000
  0.125000  0.500000  0.375000      4.000000
 -0.125000 -0.375000  0.500000      4.000000
  0.500000  0.500000  0.125000      2.000000
  0.125000  0.500000  0.500000      4.000000
  0.250000 -0.375000  0.125000      4.000000
  0.125000  0.375000  0.250000      4.000000
 -0.125000 -0.250000 -0.375000      4.000000
  0.375000 -0.375000  0.125000      2.000000
  0.125000  0.375000  0.375000      4.000000
  0.250000 -0.250000  0.125000      2.000000
  0.125000  0.250000  0.250000      4.000000
  0.250000  0.250000  0.250000      4.000000
  0.250000 -0.250000  0.250000      2.000000
  0.375000  0.250000  0.250000      4.000000
  0.250000 -0.250000  0.375000      2.000000
  0.500000  0.250000  0.250000      4.000000
  0.250000 -0.250000  0.500000      2.000000
 -0.375000  0.250000  0.250000      4.000000
  0.250000 -0.250000 -0.375000      2.000000
 -0.250000  0.250000  0.250000      2.000000
  0.250000  0.375000  0.250000      4.000000
  0.250000 -0.375000  0.250000      4.000000
 -0.250000 -0.250000  0.375000      4.000000
  0.375000  0.375000  0.250000      4.000000
  0.250000 -0.375000  0.375000      4.000000
 -0.250000 -0.375000  0.375000      4.000000
  0.500000  0.375000  0.250000      4.000000
  0.250000 -0.375000  0.500000      4.000000
 -0.250000  0.500000  0.375000      4.000000
 -0.375000  0.375000  0.250000      2.000000
  0.250000 -0.375000 -0.375000      4.000000
  0.250000  0.500000  0.250000      4.000000
 -0.250000 -0.250000  0.500000      2.000000
  0.375000  0.500000  0.250000      4.000000
  0.250000  0.500000  0.375000      4.000000
 -0.250000 -0.375000  0.500000      4.000000
  0.500000  0.500000  0.250000      2.000000
  0.250000  0.500000  0.500000      4.000000
  0.375000 -0.375000  0.250000      2.000000
  0.250000  0.375000  0.375000      4.000000
  0.375000  0.375000  0.375000      4.000000
  0.375000 -0.375000  0.375000      2.000000
  0.500000  0.375000  0.375000      4.000000
  0.375000 -0.375000  0.500000      2.000000
 -0.375000  0.375000  0.375000      2.000000
  0.375000  0.500000  0.375000      4.000000
 -0.375000 -0.375000  0.500000      2.000000
  0.500000  0.500000  0.375000      2.000000
  0.375000  0.500000  0.500000      4.000000
  0.500000  0.500000  0.500000      1.000000
 
 Following cartesian coordinates:
            Coordinates               Weight
  0.000000  0.000000  0.000000      1.000000
  0.023878  0.012084  0.008759      4.000000
  0.000000  0.000000  0.028158      2.000000
  0.047755  0.024167  0.017519      4.000000
  0.000000  0.000000  0.056317      2.000000
  0.071633  0.036251  0.026278      4.000000
  0.000000  0.000000  0.084475      2.000000
  0.095511  0.048335  0.035037      2.000000
  0.000000  0.000000  0.112633      1.000000
  0.023878  0.038845  0.000000      2.000000
  0.000000 -0.026761  0.036918      4.000000
  0.047755  0.050928  0.008759      4.000000
  0.000000 -0.026761  0.065076      4.000000
  0.000000 -0.053522  0.045677      4.000000
  0.071633  0.063012  0.017519      4.000000
  0.000000 -0.026761  0.093234      4.000000
  0.000000 -0.080284  0.054436      4.000000
  0.095511  0.075096  0.026278      4.000000
  0.000000 -0.026761  0.121392      4.000000
  0.000000  0.107045 -0.006879      4.000000
 -0.071633 -0.009490 -0.035037      4.000000
  0.000000 -0.026761 -0.075715      4.000000
  0.000000  0.080284  0.001880      4.000000
 -0.047755  0.002594 -0.026278      4.000000
  0.000000 -0.026761 -0.047557      4.000000
  0.000000  0.053522  0.010640      4.000000
 -0.023878  0.014678 -0.017519      2.000000
  0.000000 -0.026761 -0.019399      4.000000
  0.047755  0.077690  0.000000      2.000000
  0.000000 -0.053522  0.073835      4.000000
  0.071633  0.089773  0.008759      4.000000
  0.000000 -0.053522  0.101993      4.000000
  0.000000 -0.080284  0.082594      4.000000
  0.095511  0.101857  0.017519      4.000000
  0.000000 -0.053522  0.130152      4.000000
  0.000000  0.107045  0.021279      4.000000
 -0.071633  0.017271 -0.043797      4.000000
  0.000000 -0.053522 -0.066956      4.000000
  0.000000  0.080284  0.030039      4.000000
 -0.047755  0.029355 -0.035037      2.000000
  0.000000 -0.053522 -0.038798      4.000000
  0.071633  0.116535  0.000000      2.000000
  0.000000 -0.080284  0.110753      4.000000
  0.095511  0.128618  0.008759      4.000000
  0.000000 -0.080284  0.138911      4.000000
  0.000000  0.107045  0.049437      4.000000
 -0.071633  0.044033 -0.052556      2.000000
  0.000000 -0.080284 -0.058197      4.000000
  0.095511  0.155379  0.000000      1.000000
  0.000000  0.107045  0.077596      2.000000
  0.023878  0.038845  0.028158      4.000000
  0.023878 -0.014678  0.045677      2.000000
  0.047755  0.050928  0.036918      4.000000
  0.023878 -0.014678  0.073835      2.000000
  0.071633  0.063012  0.045677      4.000000
  0.023878 -0.014678  0.101993      2.000000
  0.095511  0.075096  0.054436      4.000000
  0.023878 -0.014678  0.130152      2.000000
 -0.071633 -0.009490 -0.006879      4.000000
  0.023878 -0.014678 -0.066956      2.000000
 -0.047755  0.002594  0.001880      4.000000
  0.023878 -0.014678 -0.038798      2.000000
 -0.023878  0.014678  0.010640      2.000000
  0.023878  0.065606  0.019399      4.000000
  0.023878 -0.041439  0.054436      4.000000
 -0.023878 -0.038845  0.056317      4.000000
  0.047755  0.077690  0.028158      4.000000
  0.023878 -0.041439  0.082594      4.000000
 -0.023878 -0.065606  0.065076      4.000000
  0.071633  0.089773  0.036918      4.000000
  0.023878 -0.041439  0.110753      4.000000
 -0.023878 -0.092367  0.073835      4.000000
  0.095511  0.101857  0.045677      4.000000
  0.023878 -0.041439  0.138911      4.000000
 -0.023878  0.094961  0.012520      4.000000
 -0.071633  0.017271 -0.015638      4.000000
  0.023878 -0.041439 -0.058197      4.000000
 -0.023878  0.068200  0.021279      4.000000
 -0.047755  0.029355 -0.006879      2.000000
  0.023878 -0.041439 -0.030039      4.000000
  0.023878  0.092367  0.010640      4.000000
  0.023878 -0.068200  0.063196      4.000000
 -0.023878 -0.038845  0.084475      4.000000
  0.047755  0.104451  0.019399      4.000000
  0.023878 -0.068200  0.091354      4.000000
 -0.023878 -0.065606  0.093234      4.000000
  0.071633  0.116535  0.028158      4.000000
  0.023878 -0.068200  0.119512      4.000000
 -0.023878 -0.092367  0.101993      4.000000
  0.095511  0.128618  0.036918      4.000000
  0.023878 -0.068200  0.147670      4.000000
 -0.023878  0.094961  0.040678      4.000000
 -0.071633  0.044033 -0.024398      2.000000
  0.023878 -0.068200 -0.049437      4.000000
  0.023878  0.119128  0.001880      4.000000
 -0.023878 -0.038845  0.112633      2.000000
  0.047755  0.131212  0.010640      4.000000
  0.023878  0.119128  0.030039      4.000000
 -0.023878 -0.065606  0.121392      4.000000
  0.071633  0.143296  0.019399      4.000000
  0.023878  0.119128  0.058197      4.000000
 -0.023878 -0.092367  0.130152      4.000000
  0.095511  0.155379  0.028158      2.000000
  0.023878  0.119128  0.086355      4.000000
  0.047755 -0.056116  0.071955      4.000000
  0.023878  0.092367  0.038798      4.000000
 -0.023878 -0.065606 -0.075715      4.000000
  0.071633 -0.044033  0.080714      2.000000
  0.023878  0.092367  0.066956      4.000000
  0.047755 -0.029355  0.063196      2.000000
  0.023878  0.065606  0.047557      4.000000
  0.047755  0.077690  0.056317      4.000000
  0.047755 -0.029355  0.091354      2.000000
  0.071633  0.089773  0.065076      4.000000
  0.047755 -0.029355  0.119512      2.000000
  0.095511  0.101857  0.073835      4.000000
  0.047755 -0.029355  0.147670      2.000000
 -0.071633  0.017271  0.012520      4.000000
  0.047755 -0.029355 -0.049437      2.000000
 -0.047755  0.029355  0.021279      2.000000
  0.047755  0.104451  0.047557      4.000000
  0.047755 -0.056116  0.100113      4.000000
 -0.047755 -0.077690  0.084475      4.000000
  0.071633  0.116535  0.056317      4.000000
  0.047755 -0.056116  0.128271      4.000000
 -0.047755 -0.104451  0.093234      4.000000
  0.095511  0.128618  0.065076      4.000000
  0.047755 -0.056116  0.156430      4.000000
 -0.047755  0.082877  0.031919      4.000000
 -0.071633  0.044033  0.003761      2.000000
  0.047755 -0.056116 -0.040678      4.000000
  0.047755  0.131212  0.038798      4.000000
 -0.047755 -0.077690  0.112633      2.000000
  0.071633  0.143296  0.047557      4.000000
  0.047755  0.131212  0.066956      4.000000
 -0.047755 -0.104451  0.121392      4.000000
  0.095511  0.155379  0.056317      2.000000
  0.047755  0.131212  0.095114      4.000000
  0.071633 -0.044033  0.108872      2.000000
  0.047755  0.104451  0.075715      4.000000
  0.071633  0.116535  0.084475      4.000000
  0.071633 -0.044033  0.137031      2.000000
  0.095511  0.128618  0.093234      4.000000
  0.071633 -0.044033  0.165189      2.000000
 -0.071633  0.044033  0.031919      2.000000
  0.071633  0.143296  0.075715      4.000000
 -0.071633 -0.116535  0.112633      2.000000
  0.095511  0.155379  0.084475      2.000000
  0.071633  0.143296  0.103874      4.000000
  0.095511  0.155379  0.112633      1.000000
 
 
 Subroutine IBZKPT_HF returns following result:
 ==============================================
 
 Found    512 k-points in 1st BZ
 the following    512 k-points will be used (e.g. in the exchange kernel)
 Following reciprocal coordinates:   # in IRBZ
  0.000000  0.000000  0.000000    0.00195313   1 t-inv F
  0.125000  0.000000  0.000000    0.00195313   2 t-inv F
  0.000000  0.000000  0.125000    0.00195313   3 t-inv F
  0.250000  0.000000  0.000000    0.00195313   4 t-inv F
  0.000000  0.000000  0.250000    0.00195313   5 t-inv F
  0.375000  0.000000  0.000000    0.00195313   6 t-inv F
  0.000000  0.000000  0.375000    0.00195313   7 t-inv F
  0.500000  0.000000  0.000000    0.00195313   8 t-inv F
  0.000000  0.000000  0.500000    0.00195313   9 t-inv F
  0.125000  0.125000  0.000000    0.00195313  10 t-inv F
  0.000000 -0.125000  0.125000    0.00195313  11 t-inv F
  0.250000  0.125000  0.000000    0.00195313  12 t-inv F
  0.000000 -0.125000  0.250000    0.00195313  13 t-inv F
  0.000000 -0.250000  0.125000    0.00195313  14 t-inv F
  0.375000  0.125000  0.000000    0.00195313  15 t-inv F
  0.000000 -0.125000  0.375000    0.00195313  16 t-inv F
  0.000000 -0.375000  0.125000    0.00195313  17 t-inv F
  0.500000  0.125000  0.000000    0.00195313  18 t-inv F
  0.000000 -0.125000  0.500000    0.00195313  19 t-inv F
  0.000000  0.500000  0.125000    0.00195313  20 t-inv F
 -0.375000  0.125000  0.000000    0.00195313  21 t-inv F
  0.000000 -0.125000 -0.375000    0.00195313  22 t-inv F
  0.000000  0.375000  0.125000    0.00195313  23 t-inv F
 -0.250000  0.125000  0.000000    0.00195313  24 t-inv F
  0.000000 -0.125000 -0.250000    0.00195313  25 t-inv F
  0.000000  0.250000  0.125000    0.00195313  26 t-inv F
 -0.125000  0.125000  0.000000    0.00195313  27 t-inv F
  0.000000 -0.125000 -0.125000    0.00195313  28 t-inv F
  0.250000  0.250000  0.000000    0.00195313  29 t-inv F
  0.000000 -0.250000  0.250000    0.00195313  30 t-inv F
  0.375000  0.250000  0.000000    0.00195313  31 t-inv F
  0.000000 -0.250000  0.375000    0.00195313  32 t-inv F
  0.000000 -0.375000  0.250000    0.00195313  33 t-inv F
  0.500000  0.250000  0.000000    0.00195313  34 t-inv F
  0.000000 -0.250000  0.500000    0.00195313  35 t-inv F
  0.000000  0.500000  0.250000    0.00195313  36 t-inv F
 -0.375000  0.250000  0.000000    0.00195313  37 t-inv F
  0.000000 -0.250000 -0.375000    0.00195313  38 t-inv F
  0.000000  0.375000  0.250000    0.00195313  39 t-inv F
 -0.250000  0.250000  0.000000    0.00195313  40 t-inv F
  0.000000 -0.250000 -0.250000    0.00195313  41 t-inv F
  0.375000  0.375000  0.000000    0.00195313  42 t-inv F
  0.000000 -0.375000  0.375000    0.00195313  43 t-inv F
  0.500000  0.375000  0.000000    0.00195313  44 t-inv F
  0.000000 -0.375000  0.500000    0.00195313  45 t-inv F
  0.000000  0.500000  0.375000    0.00195313  46 t-inv F
 -0.375000  0.375000  0.000000    0.00195313  47 t-inv F
  0.000000 -0.375000 -0.375000    0.00195313  48 t-inv F
  0.500000  0.500000  0.000000    0.00195313  49 t-inv F
  0.000000  0.500000  0.500000    0.00195313  50 t-inv F
  0.125000  0.125000  0.125000    0.00195313  51 t-inv F
  0.125000 -0.125000  0.125000    0.00195313  52 t-inv F
  0.250000  0.125000  0.125000    0.00195313  53 t-inv F
  0.125000 -0.125000  0.250000    0.00195313  54 t-inv F
  0.375000  0.125000  0.125000    0.00195313  55 t-inv F
  0.125000 -0.125000  0.375000    0.00195313  56 t-inv F
  0.500000  0.125000  0.125000    0.00195313  57 t-inv F
  0.125000 -0.125000  0.500000    0.00195313  58 t-inv F
 -0.375000  0.125000  0.125000    0.00195313  59 t-inv F
  0.125000 -0.125000 -0.375000    0.00195313  60 t-inv F
 -0.250000  0.125000  0.125000    0.00195313  61 t-inv F
  0.125000 -0.125000 -0.250000    0.00195313  62 t-inv F
 -0.125000  0.125000  0.125000    0.00195313  63 t-inv F
  0.125000  0.250000  0.125000    0.00195313  64 t-inv F
  0.125000 -0.250000  0.125000    0.00195313  65 t-inv F
 -0.125000 -0.125000  0.250000    0.00195313  66 t-inv F
  0.250000  0.250000  0.125000    0.00195313  67 t-inv F
  0.125000 -0.250000  0.250000    0.00195313  68 t-inv F
 -0.125000 -0.250000  0.250000    0.00195313  69 t-inv F
  0.375000  0.250000  0.125000    0.00195313  70 t-inv F
  0.125000 -0.250000  0.375000    0.00195313  71 t-inv F
 -0.125000 -0.375000  0.250000    0.00195313  72 t-inv F
  0.500000  0.250000  0.125000    0.00195313  73 t-inv F
  0.125000 -0.250000  0.500000    0.00195313  74 t-inv F
 -0.125000  0.500000  0.250000    0.00195313  75 t-inv F
 -0.375000  0.250000  0.125000    0.00195313  76 t-inv F
  0.125000 -0.250000 -0.375000    0.00195313  77 t-inv F
 -0.125000  0.375000  0.250000    0.00195313  78 t-inv F
 -0.250000  0.250000  0.125000    0.00195313  79 t-inv F
  0.125000 -0.250000 -0.250000    0.00195313  80 t-inv F
  0.125000  0.375000  0.125000    0.00195313  81 t-inv F
  0.125000 -0.375000  0.125000    0.00195313  82 t-inv F
 -0.125000 -0.125000  0.375000    0.00195313  83 t-inv F
  0.250000  0.375000  0.125000    0.00195313  84 t-inv F
  0.125000 -0.375000  0.250000    0.00195313  85 t-inv F
 -0.125000 -0.250000  0.375000    0.00195313  86 t-inv F
  0.375000  0.375000  0.125000    0.00195313  87 t-inv F
  0.125000 -0.375000  0.375000    0.00195313  88 t-inv F
 -0.125000 -0.375000  0.375000    0.00195313  89 t-inv F
  0.500000  0.375000  0.125000    0.00195313  90 t-inv F
  0.125000 -0.375000  0.500000    0.00195313  91 t-inv F
 -0.125000  0.500000  0.375000    0.00195313  92 t-inv F
 -0.375000  0.375000  0.125000    0.00195313  93 t-inv F
  0.125000 -0.375000 -0.375000    0.00195313  94 t-inv F
  0.125000  0.500000  0.125000    0.00195313  95 t-inv F
 -0.125000 -0.125000  0.500000    0.00195313  96 t-inv F
  0.250000  0.500000  0.125000    0.00195313  97 t-inv F
  0.125000  0.500000  0.250000    0.00195313  98 t-inv F
 -0.125000 -0.250000  0.500000    0.00195313  99 t-inv F
  0.375000  0.500000  0.125000    0.00195313 100 t-inv F
  0.125000  0.500000  0.375000    0.00195313 101 t-inv F
 -0.125000 -0.375000  0.500000    0.00195313 102 t-inv F
  0.500000  0.500000  0.125000    0.00195313 103 t-inv F
  0.125000  0.500000  0.500000    0.00195313 104 t-inv F
  0.250000 -0.375000  0.125000    0.00195313 105 t-inv F
  0.125000  0.375000  0.250000    0.00195313 106 t-inv F
 -0.125000 -0.250000 -0.375000    0.00195313 107 t-inv F
  0.375000 -0.375000  0.125000    0.00195313 108 t-inv F
  0.125000  0.375000  0.375000    0.00195313 109 t-inv F
  0.250000 -0.250000  0.125000    0.00195313 110 t-inv F
  0.125000  0.250000  0.250000    0.00195313 111 t-inv F
  0.250000  0.250000  0.250000    0.00195313 112 t-inv F
  0.250000 -0.250000  0.250000    0.00195313 113 t-inv F
  0.375000  0.250000  0.250000    0.00195313 114 t-inv F
  0.250000 -0.250000  0.375000    0.00195313 115 t-inv F
  0.500000  0.250000  0.250000    0.00195313 116 t-inv F
  0.250000 -0.250000  0.500000    0.00195313 117 t-inv F
 -0.375000  0.250000  0.250000    0.00195313 118 t-inv F
  0.250000 -0.250000 -0.375000    0.00195313 119 t-inv F
 -0.250000  0.250000  0.250000    0.00195313 120 t-inv F
  0.250000  0.375000  0.250000    0.00195313 121 t-inv F
  0.250000 -0.375000  0.250000    0.00195313 122 t-inv F
 -0.250000 -0.250000  0.375000    0.00195313 123 t-inv F
  0.375000  0.375000  0.250000    0.00195313 124 t-inv F
  0.250000 -0.375000  0.375000    0.00195313 125 t-inv F
 -0.250000 -0.375000  0.375000    0.00195313 126 t-inv F
  0.500000  0.375000  0.250000    0.00195313 127 t-inv F
  0.250000 -0.375000  0.500000    0.00195313 128 t-inv F
 -0.250000  0.500000  0.375000    0.00195313 129 t-inv F
 -0.375000  0.375000  0.250000    0.00195313 130 t-inv F
  0.250000 -0.375000 -0.375000    0.00195313 131 t-inv F
  0.250000  0.500000  0.250000    0.00195313 132 t-inv F
 -0.250000 -0.250000  0.500000    0.00195313 133 t-inv F
  0.375000  0.500000  0.250000    0.00195313 134 t-inv F
  0.250000  0.500000  0.375000    0.00195313 135 t-inv F
 -0.250000 -0.375000  0.500000    0.00195313 136 t-inv F
  0.500000  0.500000  0.250000    0.00195313 137 t-inv F
  0.250000  0.500000  0.500000    0.00195313 138 t-inv F
  0.375000 -0.375000  0.250000    0.00195313 139 t-inv F
  0.250000  0.375000  0.375000    0.00195313 140 t-inv F
  0.375000  0.375000  0.375000    0.00195313 141 t-inv F
  0.375000 -0.375000  0.375000    0.00195313 142 t-inv F
  0.500000  0.375000  0.375000    0.00195313 143 t-inv F
  0.375000 -0.375000  0.500000    0.00195313 144 t-inv F
 -0.375000  0.375000  0.375000    0.00195313 145 t-inv F
  0.375000  0.500000  0.375000    0.00195313 146 t-inv F
 -0.375000 -0.375000  0.500000    0.00195313 147 t-inv F
  0.500000  0.500000  0.375000    0.00195313 148 t-inv F
  0.375000  0.500000  0.500000    0.00195313 149 t-inv F
  0.500000  0.500000  0.500000    0.00195313 150 t-inv F
  0.000000  0.125000 -0.000000    0.00195313   2 t-inv F
  0.000000  0.000000 -0.125000    0.00195313   3 t-inv F
  0.000000  0.250000 -0.000000    0.00195313   4 t-inv F
  0.000000  0.000000 -0.250000    0.00195313   5 t-inv F
  0.000000  0.375000 -0.000000    0.00195313   6 t-inv F
  0.000000  0.000000 -0.375000    0.00195313   7 t-inv F
  0.000000  0.500000 -0.000000    0.00195313   8 t-inv F
 -0.125000  0.000000 -0.125000    0.00195313  11 t-inv F
  0.125000  0.250000 -0.000000    0.00195313  12 t-inv F
 -0.125000  0.000000 -0.250000    0.00195313  13 t-inv F
 -0.250000  0.000000 -0.125000    0.00195313  14 t-inv F
  0.125000  0.375000 -0.000000    0.00195313  15 t-inv F
 -0.125000  0.000000 -0.375000    0.00195313  16 t-inv F
 -0.375000  0.000000 -0.125000    0.00195313  17 t-inv F
  0.125000  0.500000 -0.000000    0.00195313  18 t-inv F
 -0.125000  0.000000 -0.500000    0.00195313  19 t-inv F
  0.500000  0.000000 -0.125000    0.00195313  20 t-inv F
  0.125000 -0.375000 -0.000000    0.00195313  21 t-inv F
 -0.125000  0.000000  0.375000    0.00195313  22 t-inv F
  0.375000  0.000000 -0.125000    0.00195313  23 t-inv F
  0.125000 -0.250000 -0.000000    0.00195313  24 t-inv F
 -0.125000  0.000000  0.250000    0.00195313  25 t-inv F
  0.250000  0.000000 -0.125000    0.00195313  26 t-inv F
  0.125000 -0.125000 -0.000000    0.00195313  27 t-inv F
 -0.125000  0.000000  0.125000    0.00195313  28 t-inv F
 -0.250000  0.000000 -0.250000    0.00195313  30 t-inv F
  0.250000  0.375000 -0.000000    0.00195313  31 t-inv F
 -0.250000  0.000000 -0.375000    0.00195313  32 t-inv F
 -0.375000  0.000000 -0.250000    0.00195313  33 t-inv F
  0.250000  0.500000 -0.000000    0.00195313  34 t-inv F
 -0.250000  0.000000 -0.500000    0.00195313  35 t-inv F
  0.500000  0.000000 -0.250000    0.00195313  36 t-inv F
  0.250000 -0.375000 -0.000000    0.00195313  37 t-inv F
 -0.250000  0.000000  0.375000    0.00195313  38 t-inv F
  0.375000  0.000000 -0.250000    0.00195313  39 t-inv F
  0.250000 -0.250000 -0.000000    0.00195313  40 t-inv F
 -0.250000  0.000000  0.250000    0.00195313  41 t-inv F
 -0.375000  0.000000 -0.375000    0.00195313  43 t-inv F
  0.375000  0.500000 -0.000000    0.00195313  44 t-inv F
 -0.375000  0.000000 -0.500000    0.00195313  45 t-inv F
  0.500000  0.000000 -0.375000    0.00195313  46 t-inv F
  0.375000 -0.375000 -0.000000    0.00195313  47 t-inv F
 -0.375000  0.000000  0.375000    0.00195313  48 t-inv F
  0.500000  0.000000 -0.500000    0.00195313  50 t-inv F
  0.125000  0.125000 -0.125000    0.00195313  51 t-inv F
 -0.125000  0.125000 -0.125000    0.00195313  52 t-inv F
  0.125000  0.250000 -0.125000    0.00195313  53 t-inv F
 -0.125000  0.125000 -0.250000    0.00195313  54 t-inv F
  0.125000  0.375000 -0.125000    0.00195313  55 t-inv F
 -0.125000  0.125000 -0.375000    0.00195313  56 t-inv F
  0.125000  0.500000 -0.125000    0.00195313  57 t-inv F
 -0.125000  0.125000 -0.500000    0.00195313  58 t-inv F
  0.125000 -0.375000 -0.125000    0.00195313  59 t-inv F
 -0.125000  0.125000  0.375000    0.00195313  60 t-inv F
  0.125000 -0.250000 -0.125000    0.00195313  61 t-inv F
 -0.125000  0.125000  0.250000    0.00195313  62 t-inv F
  0.125000 -0.125000 -0.125000    0.00195313  63 t-inv F
  0.250000  0.125000 -0.125000    0.00195313  64 t-inv F
 -0.250000  0.125000 -0.125000    0.00195313  65 t-inv F
 -0.125000 -0.125000 -0.250000    0.00195313  66 t-inv F
  0.250000  0.250000 -0.125000    0.00195313  67 t-inv F
 -0.250000  0.125000 -0.250000    0.00195313  68 t-inv F
 -0.250000 -0.125000 -0.250000    0.00195313  69 t-inv F
  0.250000  0.375000 -0.125000    0.00195313  70 t-inv F
 -0.250000  0.125000 -0.375000    0.00195313  71 t-inv F
 -0.375000 -0.125000 -0.250000    0.00195313  72 t-inv F
  0.250000  0.500000 -0.125000    0.00195313  73 t-inv F
 -0.250000  0.125000 -0.500000    0.00195313  74 t-inv F
  0.500000 -0.125000 -0.250000    0.00195313  75 t-inv F
  0.250000 -0.375000 -0.125000    0.00195313  76 t-inv F
 -0.250000  0.125000  0.375000    0.00195313  77 t-inv F
  0.375000 -0.125000 -0.250000    0.00195313  78 t-inv F
  0.250000 -0.250000 -0.125000    0.00195313  79 t-inv F
 -0.250000  0.125000  0.250000    0.00195313  80 t-inv F
  0.375000  0.125000 -0.125000    0.00195313  81 t-inv F
 -0.375000  0.125000 -0.125000    0.00195313  82 t-inv F
 -0.125000 -0.125000 -0.375000    0.00195313  83 t-inv F
  0.375000  0.250000 -0.125000    0.00195313  84 t-inv F
 -0.375000  0.125000 -0.250000    0.00195313  85 t-inv F
 -0.250000 -0.125000 -0.375000    0.00195313  86 t-inv F
  0.375000  0.375000 -0.125000    0.00195313  87 t-inv F
 -0.375000  0.125000 -0.375000    0.00195313  88 t-inv F
 -0.375000 -0.125000 -0.375000    0.00195313  89 t-inv F
  0.375000  0.500000 -0.125000    0.00195313  90 t-inv F
 -0.375000  0.125000 -0.500000    0.00195313  91 t-inv F
  0.500000 -0.125000 -0.375000    0.00195313  92 t-inv F
  0.375000 -0.375000 -0.125000    0.00195313  93 t-inv F
 -0.375000  0.125000  0.375000    0.00195313  94 t-inv F
  0.500000  0.125000 -0.125000    0.00195313  95 t-inv F
  0.500000  0.250000 -0.125000    0.00195313  97 t-inv F
  0.500000  0.125000 -0.250000    0.00195313  98 t-inv F
 -0.250000 -0.125000 -0.500000    0.00195313  99 t-inv F
  0.500000  0.375000 -0.125000    0.00195313 100 t-inv F
  0.500000  0.125000 -0.375000    0.00195313 101 t-inv F
 -0.375000 -0.125000 -0.500000    0.00195313 102 t-inv F
  0.500000  0.500000 -0.125000    0.00195313 103 t-inv F
  0.500000  0.125000 -0.500000    0.00195313 104 t-inv F
 -0.375000  0.250000 -0.125000    0.00195313 105 t-inv F
  0.375000  0.125000 -0.250000    0.00195313 106 t-inv F
 -0.250000 -0.125000  0.375000    0.00195313 107 t-inv F
 -0.375000  0.375000 -0.125000    0.00195313 108 t-inv F
  0.375000  0.125000 -0.375000    0.00195313 109 t-inv F
 -0.250000  0.250000 -0.125000    0.00195313 110 t-inv F
  0.250000  0.125000 -0.250000    0.00195313 111 t-inv F
  0.250000  0.250000 -0.250000    0.00195313 112 t-inv F
 -0.250000  0.250000 -0.250000    0.00195313 113 t-inv F
  0.250000  0.375000 -0.250000    0.00195313 114 t-inv F
 -0.250000  0.250000 -0.375000    0.00195313 115 t-inv F
  0.250000  0.500000 -0.250000    0.00195313 116 t-inv F
 -0.250000  0.250000 -0.500000    0.00195313 117 t-inv F
  0.250000 -0.375000 -0.250000    0.00195313 118 t-inv F
 -0.250000  0.250000  0.375000    0.00195313 119 t-inv F
  0.250000 -0.250000 -0.250000    0.00195313 120 t-inv F
  0.375000  0.250000 -0.250000    0.00195313 121 t-inv F
 -0.375000  0.250000 -0.250000    0.00195313 122 t-inv F
 -0.250000 -0.250000 -0.375000    0.00195313 123 t-inv F
  0.375000  0.375000 -0.250000    0.00195313 124 t-inv F
 -0.375000  0.250000 -0.375000    0.00195313 125 t-inv F
 -0.375000 -0.250000 -0.375000    0.00195313 126 t-inv F
  0.375000  0.500000 -0.250000    0.00195313 127 t-inv F
 -0.375000  0.250000 -0.500000    0.00195313 128 t-inv F
  0.500000 -0.250000 -0.375000    0.00195313 129 t-inv F
  0.375000 -0.375000 -0.250000    0.00195313 130 t-inv F
 -0.375000  0.250000  0.375000    0.00195313 131 t-inv F
  0.500000  0.250000 -0.250000    0.00195313 132 t-inv F
  0.500000  0.375000 -0.250000    0.00195313 134 t-inv F
  0.500000  0.250000 -0.375000    0.00195313 135 t-inv F
 -0.375000 -0.250000 -0.500000    0.00195313 136 t-inv F
  0.500000  0.500000 -0.250000    0.00195313 137 t-inv F
  0.500000  0.250000 -0.500000    0.00195313 138 t-inv F
 -0.375000  0.375000 -0.250000    0.00195313 139 t-inv F
  0.375000  0.250000 -0.375000    0.00195313 140 t-inv F
  0.375000  0.375000 -0.375000    0.00195313 141 t-inv F
 -0.375000  0.375000 -0.375000    0.00195313 142 t-inv F
  0.375000  0.500000 -0.375000    0.00195313 143 t-inv F
 -0.375000  0.375000 -0.500000    0.00195313 144 t-inv F
  0.375000 -0.375000 -0.375000    0.00195313 145 t-inv F
  0.500000  0.375000 -0.375000    0.00195313 146 t-inv F
  0.500000  0.500000 -0.375000    0.00195313 148 t-inv F
  0.500000  0.375000 -0.500000    0.00195313 149 t-inv F
 -0.125000 -0.000000 -0.000000    0.00195313   2 t-inv T
 -0.000000 -0.125000  0.000000    0.00195313   2 t-inv T
 -0.250000 -0.000000 -0.000000    0.00195313   4 t-inv T
 -0.000000 -0.250000  0.000000    0.00195313   4 t-inv T
 -0.375000 -0.000000 -0.000000    0.00195313   6 t-inv T
 -0.000000 -0.375000  0.000000    0.00195313   6 t-inv T
 -0.125000 -0.125000 -0.000000    0.00195313  10 t-inv T
 -0.000000  0.125000 -0.125000    0.00195313  11 t-inv T
  0.125000 -0.000000  0.125000    0.00195313  11 t-inv T
 -0.250000 -0.125000 -0.000000    0.00195313  12 t-inv T
 -0.125000 -0.250000  0.000000    0.00195313  12 t-inv T
 -0.000000  0.125000 -0.250000    0.00195313  13 t-inv T
  0.125000 -0.000000  0.250000    0.00195313  13 t-inv T
 -0.000000  0.250000 -0.125000    0.00195313  14 t-inv T
  0.250000 -0.000000  0.125000    0.00195313  14 t-inv T
 -0.375000 -0.125000 -0.000000    0.00195313  15 t-inv T
 -0.125000 -0.375000  0.000000    0.00195313  15 t-inv T
 -0.000000  0.125000 -0.375000    0.00195313  16 t-inv T
  0.125000 -0.000000  0.375000    0.00195313  16 t-inv T
 -0.000000  0.375000 -0.125000    0.00195313  17 t-inv T
  0.375000 -0.000000  0.125000    0.00195313  17 t-inv T
 -0.500000 -0.125000 -0.000000    0.00195313  18 t-inv T
 -0.125000 -0.500000  0.000000    0.00195313  18 t-inv T
 -0.000000  0.125000 -0.500000    0.00195313  19 t-inv T
  0.125000 -0.000000  0.500000    0.00195313  19 t-inv T
 -0.000000 -0.500000 -0.125000    0.00195313  20 t-inv T
 -0.500000 -0.000000  0.125000    0.00195313  20 t-inv T
  0.375000 -0.125000 -0.000000    0.00195313  21 t-inv T
 -0.125000  0.375000  0.000000    0.00195313  21 t-inv T
 -0.000000  0.125000  0.375000    0.00195313  22 t-inv T
  0.125000 -0.000000 -0.375000    0.00195313  22 t-inv T
 -0.000000 -0.375000 -0.125000    0.00195313  23 t-inv T
 -0.375000 -0.000000  0.125000    0.00195313  23 t-inv T
  0.250000 -0.125000 -0.000000    0.00195313  24 t-inv T
 -0.125000  0.250000  0.000000    0.00195313  24 t-inv T
 -0.000000  0.125000  0.250000    0.00195313  25 t-inv T
  0.125000 -0.000000 -0.250000    0.00195313  25 t-inv T
 -0.000000 -0.250000 -0.125000    0.00195313  26 t-inv T
 -0.250000 -0.000000  0.125000    0.00195313  26 t-inv T
 -0.000000  0.125000  0.125000    0.00195313  28 t-inv T
  0.125000 -0.000000 -0.125000    0.00195313  28 t-inv T
 -0.250000 -0.250000 -0.000000    0.00195313  29 t-inv T
 -0.000000  0.250000 -0.250000    0.00195313  30 t-inv T
  0.250000 -0.000000  0.250000    0.00195313  30 t-inv T
 -0.375000 -0.250000 -0.000000    0.00195313  31 t-inv T
 -0.250000 -0.375000  0.000000    0.00195313  31 t-inv T
 -0.000000  0.250000 -0.375000    0.00195313  32 t-inv T
  0.250000 -0.000000  0.375000    0.00195313  32 t-inv T
 -0.000000  0.375000 -0.250000    0.00195313  33 t-inv T
  0.375000 -0.000000  0.250000    0.00195313  33 t-inv T
 -0.500000 -0.250000 -0.000000    0.00195313  34 t-inv T
 -0.250000 -0.500000  0.000000    0.00195313  34 t-inv T
 -0.000000  0.250000 -0.500000    0.00195313  35 t-inv T
  0.250000 -0.000000  0.500000    0.00195313  35 t-inv T
 -0.000000 -0.500000 -0.250000    0.00195313  36 t-inv T
 -0.500000 -0.000000  0.250000    0.00195313  36 t-inv T
  0.375000 -0.250000 -0.000000    0.00195313  37 t-inv T
 -0.250000  0.375000  0.000000    0.00195313  37 t-inv T
 -0.000000  0.250000  0.375000    0.00195313  38 t-inv T
  0.250000 -0.000000 -0.375000    0.00195313  38 t-inv T
 -0.000000 -0.375000 -0.250000    0.00195313  39 t-inv T
 -0.375000 -0.000000  0.250000    0.00195313  39 t-inv T
 -0.000000  0.250000  0.250000    0.00195313  41 t-inv T
  0.250000 -0.000000 -0.250000    0.00195313  41 t-inv T
 -0.375000 -0.375000 -0.000000    0.00195313  42 t-inv T
 -0.000000  0.375000 -0.375000    0.00195313  43 t-inv T
  0.375000 -0.000000  0.375000    0.00195313  43 t-inv T
 -0.500000 -0.375000 -0.000000    0.00195313  44 t-inv T
 -0.375000 -0.500000  0.000000    0.00195313  44 t-inv T
 -0.000000  0.375000 -0.500000    0.00195313  45 t-inv T
  0.375000 -0.000000  0.500000    0.00195313  45 t-inv T
 -0.000000 -0.500000 -0.375000    0.00195313  46 t-inv T
 -0.500000 -0.000000  0.375000    0.00195313  46 t-inv T
 -0.000000  0.375000  0.375000    0.00195313  48 t-inv T
  0.375000 -0.000000 -0.375000    0.00195313  48 t-inv T
 -0.125000 -0.125000 -0.125000    0.00195313  51 t-inv T
 -0.125000 -0.125000  0.125000    0.00195313  51 t-inv T
 -0.250000 -0.125000 -0.125000    0.00195313  53 t-inv T
 -0.125000 -0.250000  0.125000    0.00195313  53 t-inv T
 -0.375000 -0.125000 -0.125000    0.00195313  55 t-inv T
 -0.125000 -0.375000  0.125000    0.00195313  55 t-inv T
 -0.500000 -0.125000 -0.125000    0.00195313  57 t-inv T
 -0.125000 -0.500000  0.125000    0.00195313  57 t-inv T
  0.375000 -0.125000 -0.125000    0.00195313  59 t-inv T
 -0.125000  0.375000  0.125000    0.00195313  59 t-inv T
  0.250000 -0.125000 -0.125000    0.00195313  61 t-inv T
 -0.125000  0.250000  0.125000    0.00195313  61 t-inv T
 -0.125000 -0.250000 -0.125000    0.00195313  64 t-inv T
 -0.250000 -0.125000  0.125000    0.00195313  64 t-inv T
 -0.125000  0.250000 -0.125000    0.00195313  65 t-inv T
  0.250000 -0.125000  0.125000    0.00195313  65 t-inv T
  0.125000  0.125000 -0.250000    0.00195313  66 t-inv T
  0.125000  0.125000  0.250000    0.00195313  66 t-inv T
 -0.250000 -0.250000 -0.125000    0.00195313  67 t-inv T
 -0.250000 -0.250000  0.125000    0.00195313  67 t-inv T
 -0.125000  0.250000 -0.250000    0.00195313  68 t-inv T
  0.250000 -0.125000  0.250000    0.00195313  68 t-inv T
  0.125000  0.250000 -0.250000    0.00195313  69 t-inv T
  0.250000  0.125000  0.250000    0.00195313  69 t-inv T
 -0.375000 -0.250000 -0.125000    0.00195313  70 t-inv T
 -0.250000 -0.375000  0.125000    0.00195313  70 t-inv T
 -0.125000  0.250000 -0.375000    0.00195313  71 t-inv T
  0.250000 -0.125000  0.375000    0.00195313  71 t-inv T
  0.125000  0.375000 -0.250000    0.00195313  72 t-inv T
  0.375000  0.125000  0.250000    0.00195313  72 t-inv T
 -0.500000 -0.250000 -0.125000    0.00195313  73 t-inv T
 -0.250000 -0.500000  0.125000    0.00195313  73 t-inv T
 -0.125000  0.250000 -0.500000    0.00195313  74 t-inv T
  0.250000 -0.125000  0.500000    0.00195313  74 t-inv T
  0.125000 -0.500000 -0.250000    0.00195313  75 t-inv T
 -0.500000  0.125000  0.250000    0.00195313  75 t-inv T
  0.375000 -0.250000 -0.125000    0.00195313  76 t-inv T
 -0.250000  0.375000  0.125000    0.00195313  76 t-inv T
 -0.125000  0.250000  0.375000    0.00195313  77 t-inv T
  0.250000 -0.125000 -0.375000    0.00195313  77 t-inv T
  0.125000 -0.375000 -0.250000    0.00195313  78 t-inv T
 -0.375000  0.125000  0.250000    0.00195313  78 t-inv T
 -0.125000  0.250000  0.250000    0.00195313  80 t-inv T
  0.250000 -0.125000 -0.250000    0.00195313  80 t-inv T
 -0.125000 -0.375000 -0.125000    0.00195313  81 t-inv T
 -0.375000 -0.125000  0.125000    0.00195313  81 t-inv T
 -0.125000  0.375000 -0.125000    0.00195313  82 t-inv T
  0.375000 -0.125000  0.125000    0.00195313  82 t-inv T
  0.125000  0.125000 -0.375000    0.00195313  83 t-inv T
  0.125000  0.125000  0.375000    0.00195313  83 t-inv T
 -0.250000 -0.375000 -0.125000    0.00195313  84 t-inv T
 -0.375000 -0.250000  0.125000    0.00195313  84 t-inv T
 -0.125000  0.375000 -0.250000    0.00195313  85 t-inv T
  0.375000 -0.125000  0.250000    0.00195313  85 t-inv T
  0.125000  0.250000 -0.375000    0.00195313  86 t-inv T
  0.250000  0.125000  0.375000    0.00195313  86 t-inv T
 -0.375000 -0.375000 -0.125000    0.00195313  87 t-inv T
 -0.375000 -0.375000  0.125000    0.00195313  87 t-inv T
 -0.125000  0.375000 -0.375000    0.00195313  88 t-inv T
  0.375000 -0.125000  0.375000    0.00195313  88 t-inv T
  0.125000  0.375000 -0.375000    0.00195313  89 t-inv T
  0.375000  0.125000  0.375000    0.00195313  89 t-inv T
 -0.500000 -0.375000 -0.125000    0.00195313  90 t-inv T
 -0.375000 -0.500000  0.125000    0.00195313  90 t-inv T
 -0.125000  0.375000 -0.500000    0.00195313  91 t-inv T
  0.375000 -0.125000  0.500000    0.00195313  91 t-inv T
  0.125000 -0.500000 -0.375000    0.00195313  92 t-inv T
 -0.500000  0.125000  0.375000    0.00195313  92 t-inv T
 -0.125000  0.375000  0.375000    0.00195313  94 t-inv T
  0.375000 -0.125000 -0.375000    0.00195313  94 t-inv T
 -0.125000 -0.500000 -0.125000    0.00195313  95 t-inv T
 -0.500000 -0.125000  0.125000    0.00195313  95 t-inv T
  0.125000  0.125000 -0.500000    0.00195313  96 t-inv T
 -0.250000 -0.500000 -0.125000    0.00195313  97 t-inv T
 -0.500000 -0.250000  0.125000    0.00195313  97 t-inv T
 -0.125000 -0.500000 -0.250000    0.00195313  98 t-inv T
 -0.500000 -0.125000  0.250000    0.00195313  98 t-inv T
  0.125000  0.250000 -0.500000    0.00195313  99 t-inv T
  0.250000  0.125000  0.500000    0.00195313  99 t-inv T
 -0.375000 -0.500000 -0.125000    0.00195313 100 t-inv T
 -0.500000 -0.375000  0.125000    0.00195313 100 t-inv T
 -0.125000 -0.500000 -0.375000    0.00195313 101 t-inv T
 -0.500000 -0.125000  0.375000    0.00195313 101 t-inv T
  0.125000  0.375000 -0.500000    0.00195313 102 t-inv T
  0.375000  0.125000  0.500000    0.00195313 102 t-inv T
 -0.125000 -0.500000 -0.500000    0.00195313 104 t-inv T
 -0.500000 -0.125000  0.500000    0.00195313 104 t-inv T
 -0.250000  0.375000 -0.125000    0.00195313 105 t-inv T
  0.375000 -0.250000  0.125000    0.00195313 105 t-inv T
 -0.125000 -0.375000 -0.250000    0.00195313 106 t-inv T
 -0.375000 -0.125000  0.250000    0.00195313 106 t-inv T
  0.125000  0.250000  0.375000    0.00195313 107 t-inv T
  0.250000  0.125000 -0.375000    0.00195313 107 t-inv T
 -0.125000 -0.375000 -0.375000    0.00195313 109 t-inv T
 -0.375000 -0.125000  0.375000    0.00195313 109 t-inv T
 -0.125000 -0.250000 -0.250000    0.00195313 111 t-inv T
 -0.250000 -0.125000  0.250000    0.00195313 111 t-inv T
 -0.250000 -0.250000 -0.250000    0.00195313 112 t-inv T
 -0.250000 -0.250000  0.250000    0.00195313 112 t-inv T
 -0.375000 -0.250000 -0.250000    0.00195313 114 t-inv T
 -0.250000 -0.375000  0.250000    0.00195313 114 t-inv T
 -0.500000 -0.250000 -0.250000    0.00195313 116 t-inv T
 -0.250000 -0.500000  0.250000    0.00195313 116 t-inv T
  0.375000 -0.250000 -0.250000    0.00195313 118 t-inv T
 -0.250000  0.375000  0.250000    0.00195313 118 t-inv T
 -0.250000 -0.375000 -0.250000    0.00195313 121 t-inv T
 -0.375000 -0.250000  0.250000    0.00195313 121 t-inv T
 -0.250000  0.375000 -0.250000    0.00195313 122 t-inv T
  0.375000 -0.250000  0.250000    0.00195313 122 t-inv T
  0.250000  0.250000 -0.375000    0.00195313 123 t-inv T
  0.250000  0.250000  0.375000    0.00195313 123 t-inv T
 -0.375000 -0.375000 -0.250000    0.00195313 124 t-inv T
 -0.375000 -0.375000  0.250000    0.00195313 124 t-inv T
 -0.250000  0.375000 -0.375000    0.00195313 125 t-inv T
  0.375000 -0.250000  0.375000    0.00195313 125 t-inv T
  0.250000  0.375000 -0.375000    0.00195313 126 t-inv T
  0.375000  0.250000  0.375000    0.00195313 126 t-inv T
 -0.500000 -0.375000 -0.250000    0.00195313 127 t-inv T
 -0.375000 -0.500000  0.250000    0.00195313 127 t-inv T
 -0.250000  0.375000 -0.500000    0.00195313 128 t-inv T
  0.375000 -0.250000  0.500000    0.00195313 128 t-inv T
  0.250000 -0.500000 -0.375000    0.00195313 129 t-inv T
 -0.500000  0.250000  0.375000    0.00195313 129 t-inv T
 -0.250000  0.375000  0.375000    0.00195313 131 t-inv T
  0.375000 -0.250000 -0.375000    0.00195313 131 t-inv T
 -0.250000 -0.500000 -0.250000    0.00195313 132 t-inv T
 -0.500000 -0.250000  0.250000    0.00195313 132 t-inv T
  0.250000  0.250000 -0.500000    0.00195313 133 t-inv T
 -0.375000 -0.500000 -0.250000    0.00195313 134 t-inv T
 -0.500000 -0.375000  0.250000    0.00195313 134 t-inv T
 -0.250000 -0.500000 -0.375000    0.00195313 135 t-inv T
 -0.500000 -0.250000  0.375000    0.00195313 135 t-inv T
  0.250000  0.375000 -0.500000    0.00195313 136 t-inv T
  0.375000  0.250000  0.500000    0.00195313 136 t-inv T
 -0.250000 -0.500000 -0.500000    0.00195313 138 t-inv T
 -0.500000 -0.250000  0.500000    0.00195313 138 t-inv T
 -0.250000 -0.375000 -0.375000    0.00195313 140 t-inv T
 -0.375000 -0.250000  0.375000    0.00195313 140 t-inv T
 -0.375000 -0.375000 -0.375000    0.00195313 141 t-inv T
 -0.375000 -0.375000  0.375000    0.00195313 141 t-inv T
 -0.500000 -0.375000 -0.375000    0.00195313 143 t-inv T
 -0.375000 -0.500000  0.375000    0.00195313 143 t-inv T
 -0.375000 -0.500000 -0.375000    0.00195313 146 t-inv T
 -0.500000 -0.375000  0.375000    0.00195313 146 t-inv T
  0.375000  0.375000 -0.500000    0.00195313 147 t-inv T
 -0.375000 -0.500000 -0.500000    0.00195313 149 t-inv T
 -0.500000 -0.375000  0.500000    0.00195313 149 t-inv T


--------------------------------------------------------------------------------------------------------




 Dimension of arrays:
   k-points           NKPTS =    150   k-points in BZ     NKDIM =    512   number of bands    NBANDS=     32
   number of dos      NEDOS =    301   number of ions     NIONS =     15
   non local maximal  LDIM  =      4   non local SUM 2l+1 LMDIM =      8
   total plane-waves  NPLWV =  64000
   max r-space proj   IRMAX =      1   max aug-charges    IRDMAX=  20216
   dimension x,y,z NGX =    40 NGY =   40 NGZ =   40
   dimension x,y,z NGXF=    80 NGYF=   80 NGZF=   80
   support grid    NGXF=    80 NGYF=   80 NGZF=   80
   ions per type =               1  12   2
   NGX,Y,Z   is equivalent  to a cutoff of  12.70, 12.70, 12.70 a.u.
   NGXF,Y,Z  is equivalent  to a cutoff of  25.41, 25.41, 25.41 a.u.

 SYSTEM =  B12BeN2                                 
 POSCAR =  B12BeN2.cif                             

 Startparameter for this run:
   NWRITE =      2    write-flag & timer
   PREC   = accura    normal or accurate (medium, high low for compatibility)
   ISTART =      0    job   : 0-new  1-cont  2-samecut
   ICHARG =      2    charge: 1-file 2-atom 10-const
   ISPIN  =      1    spin polarized calculation?
   LNONCOLLINEAR =      F non collinear calculations
   LSORBIT =      F    spin-orbit coupling
   INIWAV =      1    electr: 0-lowe 1-rand  2-diag
   LASPH  =      F    aspherical Exc in radial PAW
 Electronic Relaxation 1
   ENCUT  =  500.0 eV  36.75 Ry    6.06 a.u.   9.54  9.54  9.54*2*pi/ulx,y,z
   ENINI  =  500.0     initial cutoff
   ENAUG  =  627.1 eV  augmentation charge cutoff
   NELM   =     60;   NELMIN=  2; NELMDL= -5     # of ELM steps 
   EDIFF  = 0.1E-04   stopping-criterion for ELM
   LREAL  =      F    real-space projection
   NLSPLINE    = F    spline interpolate recip. space projectors
   LCOMPAT=      F    compatible to vasp.4.4
   GGA_COMPAT  = T    GGA compatible to vasp.4.4-vasp.4.6
   LMAXPAW     = -100 max onsite density
   LMAXMIX     =    2 max onsite mixed and CHGCAR
   VOSKOWN=      0    Vosko Wilk Nusair interpolation
   ROPT   =    0.00000   0.00000   0.00000
 Ionic relaxation
   EDIFFG = -.1E-01   stopping-criterion for IOM
   NSW    =   1000    number of steps for IOM
   NBLOCK =      1;   KBLOCK =   1000    inner block; outer block 
   IBRION =      2    ionic relax: 0-MD 1-quasi-New 2-CG
   NFREE  =      1    steps in history (QN), initial steepest desc. (CG)
   ISIF   =      3    stress and relaxation
   IWAVPR =     11    prediction:  0-non 1-charg 2-wave 3-comb
   ISYM   =      3    0-nonsym 1-usesym 2-fastsym
   LCORR  =      T    Harris-Foulkes like correction to forces

   POTIM  = 0.5000    time-step for ionic-motion
   TEIN   =    0.0    initial temperature
   TEBEG  =    0.0;   TEEND  =   0.0 temperature during run
   SMASS  =  -3.00    Nose mass-parameter (am)
   estimated Nose-frequenzy (Omega)   =  0.10E-29 period in steps = 0.13E+47 mass=  -0.626E-27a.u.
   SCALEE = 1.0000    scale energy and forces
   NPACO  =    256;   APACO  = 10.0  distance and # of slots for P.C.
   PSTRESS=    0.0 pullay stress

  Mass of Ions in am
   POMASS =   9.01 10.81 14.00
  Ionic Valenz
   ZVAL   =   2.00  3.00  5.00
  Atomic Wigner-Seitz radii
   RWIGS  =  -1.00 -1.00 -1.00
  virtual crystal weights 
   VCA    =   1.00  1.00  1.00
   NELECT =      48.0000    total number of electrons
   NUPDOWN=      -1.0000    fix difference up-down

 DOS related values:
   EMIN   =  10.00;   EMAX   =-10.00  energy-range for DOS
   EFERMI =   0.00
   ISMEAR =     0;   SIGMA  =   0.01  broadening in eV -4-tet -1-fermi 0-gaus

 Electronic relaxation 2 (details)
   IALGO  =     58    algorithm
   LDIAG  =      T    sub-space diagonalisation (order eigenvalues)
   LSUBROT=      F    optimize rotation matrix (better conditioning)
   TURBO    =      0    0=normal 1=particle mesh
   IRESTART =      0    0=no restart 2=restart with 2 vectors
   NREBOOT  =      0    no. of reboots
   NMIN     =      0    reboot dimension
   EREF     =   0.00    reference energy to select bands
   IMIX   =      4    mixing-type and parameters
     AMIX     =   0.40;   BMIX     =  1.00
     AMIX_MAG =   1.60;   BMIX_MAG =  1.00
     AMIN     =   0.10
     WC   =   100.;   INIMIX=   1;  MIXPRE=   1;  MAXMIX= -45

 Intra band minimization:
   WEIMIN = 0.0010     energy-eigenvalue tresh-hold
   EBREAK =  0.78E-07  absolut break condition
   DEPER  =   0.30     relativ break condition  

   TIME   =   0.40     timestep for ELM

  volume/ion in A,a.u.               =       7.24        48.83
  Fermi-wavevector in a.u.,A,eV,Ry     =   1.247230  2.356924 21.165004  1.555584
  Thomas-Fermi vector in A             =   2.381372
 
 Write flags
   LWAVE        =      F    write WAVECAR
   LDOWNSAMPLE  =      F    k-point downsampling of WAVECAR
   LCHARG       =      F    write CHGCAR
   LVTOT        =      F    write LOCPOT, total local potential
   LVHAR        =      F    write LOCPOT, Hartree potential only
   LELF         =      F    write electronic localiz. function (ELF)
   LORBIT       =      0    0 simple, 1 ext, 2 COOP (PROOUT), +10 PAW based schemes


 Dipole corrections
   LMONO  =      F    monopole corrections only (constant potential shift)
   LDIPOL =      F    correct potential (dipole corrections)
   IDIPOL =      0    1-x, 2-y, 3-z, 4-all directions 
   EPSILON=  1.0000000 bulk dielectric constant

 Exchange correlation treatment:
   GGA     =    PE    GGA type
   LEXCH   =     8    internal setting for exchange type
   LIBXC   =     F    Libxc                    
   VOSKOWN =     0    Vosko Wilk Nusair interpolation
   EXXOEP  =     0    0=HF, 1=EXX-LHF (local Hartree Fock) 2=EXX OEP
   LHFCALC =     T    Hartree Fock is set to
   LSYMGRAD=     F    symmetrize gradient (conserves proper symmetry)
   PRECFOCK=normal    Normal, Fast or Accurate (Low or Medium for compatibility)
   LRHFCALC=     F    long range Hartree Fock
   LRSCOR  =     F    long range correlation only (use DFT for short range part)
   LTHOMAS =     F    Thomas Fermi screening in HF
   LMODELHF=     F    short range full HF, long range fraction AEXX
   FOCKCORR=     1    mode to apply convergence corrections
   LFOCKACE=     T    use Adeptively-Compressed-Exchange operator
   ENCUT4O =  -1.0   cutoff for four orbital integrals eV
   LMAXFOCK=     4    L truncation for augmentation on plane wave grid
   LMAXFOCKAE=  -1    L truncation for all-electron charge restoration on plane wave grid
   NMAXFOCKAE=   1    number of basis functions for all-electron charge restoration
   LFOCKAEDFT=     F  apply the AE augmentation even for DFT
   NKREDX  =     1    reduce k-point grid by
   NKREDY  =     1    reduce k-point grid by
   NKREDZ  =     1    reduce k-point grid by
   SHIFTRED=     F    shift reduced grid of Gamma
   HFKIDENT=     F    idential grid for each k-point
   ODDONLY =     F    use only odd q-grid points
   EVENONLY=     F    use only even q-grid points
   HFALPHA =   -1.0000 decay constant for conv. correction
   MCALPHA =    0.0000 extent of test-charge in conv. correction in multipole expansion
   AEXX    =    0.2500 exact exchange contribution
   HFSCREEN=    0.2000 screening length (either q_TF or 0.3 A-1)
   HFSCREENC=   0.2000 screening length for correlation (either q_TF or 0.3 A-1)
   HFRCUT  =    0.0000 spherical cutoff for potential kernel
   ALDAX   =    0.7500 LDA exchange part
   AGGAX   =    0.7500 GGA exchange part
   ALDAC   =    1.0000 LDA correlation
   AGGAC   =    1.0000 GGA correlation
   ENCUTFOCK=  -1.0 apply spherical cutoff to Coloumb kernel
   NBANDSGWLOW=     1    first orbital included in HF term
   NBLOCK_FOCK=    64    blocking factor in FOCK_ACC

 Linear response parameters
   LEPSILON=     F    determine dielectric tensor
   LRPA    =     F    only Hartree local field effects (RPA)
   LNABLA  =     F    use nabla operator in PAW spheres
   LVEL    =     F    velocity operator in full k-point grid
   CSHIFT  =0.1000    complex shift for real part using Kramers Kronig
   OMEGAMAX=  -1.0    maximum frequency
   DEG_THRESHOLD= 0.2000000E-02 threshold for treating states as degnerate
   RTIME   =   -0.100 relaxation time in fs
  (WPLASMAI=    0.000 imaginary part of plasma frequency in eV, 0.658/RTIME)
   DFIELD  = 0.0000000 0.0000000 0.0000000 field for delta impulse in time
 
  Optional k-point grid parameters
   LKPOINTS_OPT  =     F    use optional k-point grid
   KPOINTS_OPT_MODE=     1    mode for optional k-point grid
 
 Orbital magnetization related:
   ORBITALMAG=     F  switch on orbital magnetization
   LCHIMAG   =     F  perturbation theory with respect to B field
   DQ        =  0.001000  dq finite difference perturbation B field
   LLRAUG    =     F  two centre corrections for induced B field



--------------------------------------------------------------------------------------------------------


 conjugate gradient relaxation of ions
 charge density and potential will be updated during run
 non-spin polarized calculation
 Conjugate gradient for all bands (Freysoldt, et al. PRB 79, 241103 (2009))
 preconditioned conjugated gradient                                        
 perform sub-space diagonalisation
    before iterative eigenvector-optimisation
 modified Broyden-mixing scheme, WC =      100.0
 initial mixing is a Kerker type mixing with AMIX =  0.4000 and BMIX =      1.0000
 Hartree-type preconditioning will be used
 using additional bands             8
 reciprocal scheme for non local part
 use partial core corrections
 no Harris-corrections to forces 
 use gradient corrections 
 use of overlap-Matrix (Vanderbilt PP)
 Gauss-broadening in eV      SIGMA  =   0.01


--------------------------------------------------------------------------------------------------------


  energy-cutoff  :      500.00
  volume of cell :      108.55
      direct lattice vectors                 reciprocal lattice vectors
     5.235000000  0.000000000  0.000000000     0.191021968  0.096669216  0.070074579
    -2.363793006  4.670942905  0.000000000     0.000000000  0.214089536 -0.070074579
    -2.363793006  1.453012625  4.439196091     0.000000000 -0.000000000  0.225266012

  length of vectors
     5.235000000  5.235000000  5.235000000     0.225266012  0.225266012  0.225266012


 
 k-points in units of 2pi/SCALE and weight: Auto                                    
   0.00000000  0.00000000  0.00000000       0.002
   0.02387775  0.01208365  0.00875932       0.008
   0.00000000  0.00000000  0.02815825       0.004
   0.04775549  0.02416730  0.01751864       0.008
   0.00000000  0.00000000  0.05631650       0.004
   0.07163324  0.03625096  0.02627797       0.008
   0.00000000  0.00000000  0.08447475       0.004
   0.09551098  0.04833461  0.03503729       0.004
   0.00000000  0.00000000  0.11263301       0.002
   0.02387775  0.03884484  0.00000000       0.004
   0.00000000 -0.02676119  0.03691757       0.008
   0.04775549  0.05092850  0.00875932       0.008
   0.00000000 -0.02676119  0.06507583       0.008
   0.00000000 -0.05352238  0.04567690       0.008
   0.07163324  0.06301215  0.01751864       0.008
   0.00000000 -0.02676119  0.09323408       0.008
   0.00000000 -0.08028358  0.05443622       0.008
   0.09551098  0.07509580  0.02627797       0.008
   0.00000000 -0.02676119  0.12139233       0.008
   0.00000000  0.10704477 -0.00687904       0.008
  -0.07163324 -0.00948976 -0.03503729       0.008
   0.00000000 -0.02676119 -0.07571543       0.008
   0.00000000  0.08028358  0.00188028       0.008
  -0.04775549  0.00259389 -0.02627797       0.008
   0.00000000 -0.02676119 -0.04755718       0.008
   0.00000000  0.05352238  0.01063961       0.008
  -0.02387775  0.01467754 -0.01751864       0.004
   0.00000000 -0.02676119 -0.01939893       0.008
   0.04775549  0.07768969  0.00000000       0.004
   0.00000000 -0.05352238  0.07383515       0.008
   0.07163324  0.08977334  0.00875932       0.008
   0.00000000 -0.05352238  0.10199340       0.008
   0.00000000 -0.08028358  0.08259447       0.008
   0.09551098  0.10185699  0.01751864       0.008
   0.00000000 -0.05352238  0.13015165       0.008
   0.00000000  0.10704477  0.02127921       0.008
  -0.07163324  0.01727143 -0.04379661       0.008
   0.00000000 -0.05352238 -0.06695611       0.008
   0.00000000  0.08028358  0.03003854       0.008
  -0.04775549  0.02935508 -0.03503729       0.004
   0.00000000 -0.05352238 -0.03879786       0.008
   0.07163324  0.11653453  0.00000000       0.004
   0.00000000 -0.08028358  0.11075272       0.008
   0.09551098  0.12861818  0.00875932       0.008
   0.00000000 -0.08028358  0.13891097       0.008
   0.00000000  0.10704477  0.04943746       0.008
  -0.07163324  0.04403262 -0.05255593       0.004
   0.00000000 -0.08028358 -0.05819679       0.008
   0.09551098  0.15537938  0.00000000       0.002
   0.00000000  0.10704477  0.07759572       0.004
   0.02387775  0.03884484  0.02815825       0.008
   0.02387775 -0.01467754  0.04567690       0.004
   0.04775549  0.05092850  0.03691757       0.008
   0.02387775 -0.01467754  0.07383515       0.004
   0.07163324  0.06301215  0.04567690       0.008
   0.02387775 -0.01467754  0.10199340       0.004
   0.09551098  0.07509580  0.05443622       0.008
   0.02387775 -0.01467754  0.13015165       0.004
  -0.07163324 -0.00948976 -0.00687904       0.008
   0.02387775 -0.01467754 -0.06695611       0.004
  -0.04775549  0.00259389  0.00188028       0.008
   0.02387775 -0.01467754 -0.03879786       0.004
  -0.02387775  0.01467754  0.01063961       0.004
   0.02387775  0.06560604  0.01939893       0.008
   0.02387775 -0.04143873  0.05443622       0.008
[...]
  499          pw_charge                             0.082425                       2560   4
  500          fft3d_mpi                             0.796392                       1810   4
  501            fft3d                                 0.795792                     1810   5
  502          m_sumb_d                              0.078390                          5   4
  503          fft_gq                                0.002594                          5   4
  504            fft3d_mpi                             0.002543                        5   5
  505              fftbrc_mpi                            0.001808                      5   6
  506                fftbas_plan_mpi                       0.001806                    5   7
  507                  dfftw_execute                         0.000469                 15   8
  508                  map_backward                          0.000879                 10   8
  509                    map_gather                            0.000181               10   9
  510                    m_alltoallv_z                         0.000667               10   9
  511                    map_scatter                           0.000014               10   9
  512        depsum_sym                            0.007178                            5   3
  513          w1_copy                               0.000826                        750   4
  514          m_sumb_d                              0.001438                          5   4
  515        augmentation_charge                   0.003433                            5   3
  516          fft3d_mpi                             0.001505                          5   4
  517            fftbrc_mpi                            0.001464                        5   5
  518              fftbas_plan_mpi                       0.001461                      5   6
  519                dfftw_execute                         0.000277                   15   7
  520                map_backward                          0.000669                   10   7
  521                  map_gather                            0.000076                  5   8
  522                  m_alltoallv_z                         0.000535                  5   8
  523                  map_scatter                           0.000048                  5   8
 
 Flat profile
 ============
 
             routine name                   CPU           calls
 ---------------------------------------------------------------
 fock_fwd                             4056.207102       14100
 phaser_hf                            4046.713158     7680000
 dllmm_trans_eccp_nl_fock_acc          670.028094     4147200
 fock_bck                              260.732697       14100
 rpromu_hf_acc                         161.793070    11827200
 fock_set_gfac_vkpt                    104.318091     7219200
 batched_fft                            95.622363    15360000
 racc0mu_hf_acc                         82.868050     7680000
 spher                                  80.980415       11820
 fock_force                             78.712737           6
 redis_pw                               70.663953       72723
 fft3d                                  57.187170     7787726
 edwav                                  50.138799          82
 apply_gfac_exchange_mu_acc             47.185994     7219200
 m_sumb_d                               42.714612       39392
 pw_charge_trace_mu_acc                 32.212863     7680000
 vhamil_trace_mu_acc                    31.200893     7219200
 fock_all_dblbuf                        29.533632          94
 acc_cufft_makeplan                     28.318896         121
 redis_proj                             25.873611      172740
 depsum_two_bands_rholm_trace_m         25.395816     3609600
 fft_and_gather                         23.105168       15000
 lincom                                 22.261235       39600
 depsum_two_bands_rholm_trace_m         22.010700     3148800
 fftwav                                 20.386362     2301135
 fock_set_gfac_der                      20.199676      460800
 contraction                            17.112350     4147200
 calc_dllmm_trans_and_overl_foc         16.393384     3609600
 calc_dllmm_trans_and_overl_foc         14.300732     3148800
 fock_set_fsg_der                       13.838923           6
 w1_copy                                12.596693     2300055
 soft_charge_sym                         9.754923          88
 depsum_sym                              9.275567          88
 total_time                              8.437558           1
 fock_charge_mu                          8.317243     7680000
 fock_set_fsg                            7.499622           6
 eddav                                   7.426892           5
 m_alltoall_d                            7.168488      245463
 lapack                                  5.763919        2835
 vnlac0_acc                              5.083335       23085
 init_acc                                4.528969           1
 eddiag                                  3.852816          52
 depsum_two_bands_rholm_trace_m          3.373812      460800
 m_bcast_d                               3.247279        5790
 phase                                   3.016524       33606
 eccp                                    2.927977       25350
 depsum_two_bands_rholm_trace_m          2.700067      384000
 strenl                                  2.612525           6
 ggaall_grid                             2.585762         101
 fftwav_mpi                              2.578709     2301135
 orthch                                  2.178050          88
 wrk_allocate                            2.054709           6
 apply_gfac_der_mu                       2.020133      460800
 map_scatter                             1.851199        1666
 reduce                                  1.797711       14100
 calc_dllmm_trans_and_overl_foc          1.709251      384000
 fft3d_mpi                               1.706524     5488074
 apply_gfac_weight_mu                    1.660576      460800
 m_alltoallv_z                           1.567345        1666
 choleski                                1.267979       13350
 pw_charge                               1.224628       45056
 proj1_acc                               1.125424       20550
 overl                                   1.007144       38220
 brgrid                                  0.635512           1
 projlat_der                             0.586737         900
 m_ibcast_z_from                         0.563979     1140000
 depsum_two_bands_rholm_trace_m          0.529383       76800
 orth1                                   0.479383       28905
 fornl                                   0.409806           6
 m_ireduce_z_to                          0.397286      902400
 calc_dllmm_trans_and_overl_foc          0.346085       76800
 m_bcast_z                               0.343240        7635
 overl1                                  0.335239       16935
 fftext_mpi                              0.269625       24735
 proj                                    0.222497         900
 projxyz                                 0.220769         900
 elmin_all                               0.208924           6
 w1_dot                                  0.172337        6300
 hamilt_local                            0.130469        7800
 vhamil                                  0.122566       10635
 hamiltmu                                0.121495        2835
 kinhamil                                0.119512       10635
 potlok                                  0.110191          95
 proall                                  0.105382           6
 rspher_all                              0.084595          60
 setdij_                                 0.076943         252
 force_and_stress                        0.069973           6
 fftbas_plan_mpi                         0.067902        1483
 w1_dscal                                0.050802        6150
 projmu_acc                              0.048354        2085
 ggemm                                   0.038081        2835
 augmentation_charge                     0.036653          88
 fock_ace_construct                      0.035412           1
 acc_init_cublas                         0.033533           1
 waitred                                 0.032291       14100
 waitgth                                 0.032124       14100
 fock_ace_acc_apply                      0.031221         459
 map_gather                              0.030322        1666
 setup_precond                           0.028317         750
 wavpre_noio                             0.024930           5
 newband                                 0.021572        3585
 acc_init_cusolver                       0.020014           1
 dfftw_execute                           0.019082         741
 apply_precond                           0.014238        2085
 redis_pw_all                            0.013259          82
 densta                                  0.009599          99
 map_backward                            0.008687        1564
 map_forward                             0.008161        1402
 wrk_deallocate                          0.007437           6
 pothar                                  0.007153          95
 inisym                                  0.003819           1
 w1_daxpy                                0.002931         459
 set_charge                              0.002873          88
 set_dd_paw                              0.002527         101
 w1_projall                              0.002494        2085
 stufak                                  0.002269           6
 strehar                                 0.001999           6
 forloc                                  0.001757           6
 strelo                                  0.001642           6
 forhar                                  0.001179           6
 fft_gq                                  0.001110          88
 rsp                                     0.001071           6
 strkin                                  0.001022           6
 fftbrc_mpi                              0.000885        1483
 fewald                                  0.000372           6
 truncate_high_frequency_w1              0.000355        3585
 shift_bands_between_low_high            0.000218        1650
 rcp                                     0.000142           6
 fordep                                  0.000049           6
 redis_pw_over_bands                     0.000048          93
 set_dd_magatom                          0.000044          12
 crpa_reader                             0.000025           1
 acc_cufft_makeplans                     0.000017           5
 potlok_metagga                          0.000011          95
 posmap                                  0.000009           2
 vectorpot                               0.000004           1
 rotate_active_occupied_orbital          0.000002           6
 ---------------------------------------------------------------
  summed up times     10389.23984789848     
 
 Accumulative profile
 ====================
 
             routine name                   CPU           calls
 ---------------------------------------------------------------
 total_time                          10389.239848           1
 fock_all_dblbuf                      8832.493635          94
 elmin_all                            8639.462040           6
 fock_fwd                             8512.125386       14100
 eddiag                               4898.625343          52
 edwav                                4058.698609          82
 phaser_hf                            4046.713158     7680000
 fock_set_gfac_vkpt                   3904.088350     7219200
 force_and_stress                     1242.178414           6
 fock_force                           1225.171092           6
 dllmm_trans_eccp_nl_fock_acc          670.028094     4147200
 fock_set_gfac_der                     267.142575      460800
 fock_bck                              261.403527       14100
 fock_charge_mu                        177.407934     7680000
 rpromu_hf_acc                         161.793070    11827200
 batched_fft                            95.622363    15360000
 racc0mu_hf_acc                         82.868050     7680000
 spher                                  80.980415       11820
 redis_pw                               72.419695       72723
 projlat_der                            69.105126         900
 fft3d                                  57.187170     7787726
 apply_gfac_exchange_mu_acc             47.185994     7219200
 fft3d_mpi                              45.702535     5488074
 m_sumb_d                               42.714612       39392
 fftwav_mpi                             39.709814     2301135
 orthch                                 38.384659          88
 fftwav                                 37.131104     2301135
 pw_charge_trace_mu_acc                 32.212863     7680000
 redis_proj                             31.286356      172740
 vhamil_trace_mu_acc                    31.200893     7219200
 eddav                                  30.030715           5
 acc_cufft_makeplan                     28.318896         121
 depsum_two_bands_rholm_trace_m         25.395816     3609600
 fft_and_gather                         24.091448       15000
 set_charge                             22.766905          88
 lincom                                 22.261235       39600
 depsum_two_bands_rholm_trace_m         22.010700     3148800
 contraction                            17.112350     4147200
 calc_dllmm_trans_and_overl_foc         16.393384     3609600
 wrk_allocate                           15.971748           6
 strenl                                 15.930376           6
 calc_dllmm_trans_and_overl_foc         14.300732     3148800
 fock_set_fsg_der                       13.838923           6
 soft_charge_sym                        13.184872          88
 w1_copy                                12.596693     2300055
 redis_pw_over_bands                    10.117255          93
 redis_pw_all                           10.117207          82
 depsum_sym                              9.510455          88
 fock_set_fsg                            7.499622           6
 m_alltoall_d                            7.168488      245463
 potlok                                  6.016641          95
 lapack                                  5.763919        2835
 vnlac0_acc                              5.083335       23085
 init_acc                                4.528969           1
 acc_cufft_makeplans                     4.028679           5
 fftbrc_mpi                              3.553583        1483
 fftbas_plan_mpi                         3.552699        1483
 depsum_two_bands_rholm_trace_m          3.373812      460800
 m_bcast_d                               3.247279        5790
 set_dd_paw                              3.196281         101
 phase                                   3.016524       33606
 eccp                                    2.927977       25350
 depsum_two_bands_rholm_trace_m          2.700067      384000
 ggaall_grid                             2.585762         101
 map_forward                             2.427197        1402
 reduce                                  2.194997       14100
 apply_gfac_der_mu                       2.020133      460800
 map_scatter                             1.851199        1666
 calc_dllmm_trans_and_overl_foc          1.709251      384000
 apply_gfac_weight_mu                    1.660576      460800
 m_alltoallv_z                           1.567345        1666
 newband                                 1.310165        3585
 choleski                                1.267979       13350
 pw_charge                               1.224628       45056
 proj1_acc                               1.125424       20550
 map_backward                            1.038518        1564
 overl                                   1.007144       38220
 fock_ace_acc_apply                      0.880951         459
 brgrid                                  0.635512           1
 hamilt_local                            0.590552        7800
 m_ibcast_z_from                         0.563979     1140000
 depsum_two_bands_rholm_trace_m          0.529383       76800
 fornl                                   0.492845           6
 fftext_mpi                              0.482783       24735
 orth1                                   0.479383       28905
 fock_ace_construct                      0.450353           1
 kinhamil                                0.402423       10635
 m_ireduce_z_to                          0.397286      902400
 proall                                  0.350071           6
 calc_dllmm_trans_and_overl_foc          0.346085       76800
 m_bcast_z                               0.343240        7635
 overl1                                  0.335239       16935
 hamiltmu                                0.267558        2835
 proj                                    0.235199         900
 projxyz                                 0.222290         900
 w1_dot                                  0.172566        6300
 setdij_                                 0.136524         252
 vhamil                                  0.122566       10635
 rspher_all                              0.084595          60
 augmentation_charge                     0.068705          88
 densta                                  0.067578          99
 fft_gq                                  0.051848          88
 w1_projall                              0.050848        2085
 w1_dscal                                0.050802        6150
 projmu_acc                              0.048354        2085
 ggemm                                   0.038081        2835
 acc_init_cublas                         0.033533           1
 waitred                                 0.032291       14100
 waitgth                                 0.032124       14100
 map_gather                              0.030322        1666
 setup_precond                           0.028317         750
 wavpre_noio                             0.026758           5
 pothar                                  0.021462          95
 acc_init_cusolver                       0.020014           1
 dfftw_execute                           0.019082         741
 apply_precond                           0.014238        2085
 fordep                                  0.013563           6
 wrk_deallocate                          0.007437           6
 inisym                                  0.003828           1
 forloc                                  0.003503           6
 fewald                                  0.003305           6
 w1_daxpy                                0.002931         459
 stufak                                  0.002269           6
 strehar                                 0.002215           6
 forhar                                  0.002199           6
 strelo                                  0.001978           6
 strkin                                  0.001315           6
 rsp                                     0.001071           6
 truncate_high_frequency_w1              0.000355        3585
 shift_bands_between_low_high            0.000218        1650
 rcp                                     0.000142           6
 set_dd_magatom                          0.000044          12
 crpa_reader                             0.000025           1
 potlok_metagga                          0.000011          95
 posmap                                  0.000009           2
 vectorpot                               0.000004           1
 rotate_active_occupied_orbital          0.000002           6
 ---------------------------------------------------------------
 
Profiling took  14.561865  9.561238  0.003805  0.003709 seconds
Profiling took   9.371830 seconds
