 running on   32 total cores
 distrk:  each k-point on   32 cores,    1 groups
 distr:  one band on    1 cores,   32 groups
 OpenACC runtime initialized ...   32 GPUs detected
 vasp.6.3.2 27Jun22 (build Jan 18 2024 14:18:24) complex                         
 POSCAR found type information on POSCAR BeB N 
 POSCAR found :  3 types and      15 ions
 Reading from existing POTCAR
 scaLAPACK will be used selectively (only on CPU)
 -----------------------------------------------------------------------------
|                                                                             |
|           W    W    AA    RRRRR   N    N  II  N    N   GGGG   !!!           |
|           W    W   A  A   R    R  NN   N  II  NN   N  G    G  !!!           |
|           W    W  A    A  R    R  N N  N  II  N N  N  G       !!!           |
|           W WW W  AAAAAA  RRRRR   N  N N  II  N  N N  G  GGG   !            |
|           WW  WW  A    A  R   R   N   NN  II  N   NN  G    G                |
|           W    W  A    A  R    R  N    N  II  N    N   GGGG   !!!           |
|                                                                             |
|     For optimal performance we recommend to set                             |
|       NCORE = 2 up to number-of-cores-per-socket                            |
|     NCORE specifies how many cores store one orbital (NPAR=cpu/NCORE).      |
|     This setting can greatly improve the performance of VASP for DFT.       |
|     The default, NCORE=1 might be grossly inefficient on modern             |
|     multi-core architectures or massively parallel machines. Do your        |
|     own testing! More info at https://www.vasp.at/wiki/index.php/NCORE      |
|     Unfortunately you need to use the default for GW and RPA                |
|     calculations (for HF NCORE is supported but not extensively tested      |
|     yet).                                                                   |
|                                                                             |
 -----------------------------------------------------------------------------

 Reading from existing POTCAR
 LDA part: xc-table for Pade appr. of Perdew
 POSCAR, INCAR and KPOINTS ok, starting setup
 FFT: planning ... GRIDC
 FFT: planning ... GRID_SOFT
 FFT: planning ... GRID
 WAVECAR not read
 entering main loop
       N       E                     dE             d eps       ncg     rms          ort
DAV:   1    -0.217390848049E+03   -0.21739E+03   -0.25319E+04  4800   0.140E+03
DAV:   2    -0.428207447342E+03   -0.21082E+03   -0.20859E+03  4800   0.210E+02
DAV:   3    -0.430954829232E+03   -0.27474E+01   -0.27474E+01  4800   0.338E+01
DAV:   4    -0.430963267926E+03   -0.84387E-02   -0.84387E-02  4800   0.149E+00
DAV:   5    -0.128823020350E+03    0.30214E+03   -0.52460E+00  4800   0.164E+01
 gam= 0.000 g(H,U,f)=  0.221E+02 0.160E+01 0.374E-62 ort(H,U,f) = 0.000E+00 0.000E+00 0.000E+00
SDA:   6    -0.114510412916E+03    0.14313E+02   -0.52460E+00  4800   0.237E+02 0.000E+00
 gam= 0.000 trial= 0.400  step= 0.466 mean= 0.400
 gam= 0.053 g(H,U,f)=  0.951E+00 0.307E+00 0.276E-18 ort(H,U,f) =-0.876E+00 0.650E+00-0.385E-18
CGA:   7    -0.120028840273E+03   -0.55184E+01   -0.55290E+01  4800   0.126E+01-0.226E+00
 gam= 0.053 trial= 0.403  step= 0.750 mean= 0.403
 gam= 0.291 g(H,U,f)=  0.251E+00 0.115E+00 0.115E-12 ort(H,U,f) =-0.202E+00 0.191E+00 0.228E-12
CGA:   8    -0.120494746573E+03   -0.46591E+00   -0.46765E+00  4800   0.366E+00-0.107E-01
 gam= 0.291 trial= 0.421  step= 0.965 mean= 0.421
 gam= 0.266 g(H,U,f)=  0.765E-01 0.208E-01 0.552E-23 ort(H,U,f) =-0.770E-01 0.725E-01 0.201E-22
CGA:   9    -0.120668564825E+03   -0.17382E+00   -0.17509E+00  4800   0.972E-01-0.448E-02
 gam= 0.266 trial= 0.448  step= 0.951 mean= 0.448
 gam= 0.209 g(H,U,f)=  0.189E-01 0.146E-02 0.432E-25 ort(H,U,f) =-0.891E-02 0.837E-02 0.503E-24
CGA:  10    -0.120714108679E+03   -0.45544E-01   -0.45689E-01  4800   0.203E-01-0.542E-03
 gam= 0.209 trial= 0.473  step= 0.854 mean= 0.473
 gam= 0.188 g(H,U,f)=  0.360E-02 0.212E-03 0.708E-22 ort(H,U,f) =-0.441E-03 0.390E-03-0.199E-20
CGA:  11    -0.120722724101E+03   -0.86154E-02   -0.86259E-02  4800   0.382E-02-0.511E-04
 gam= 0.188 trial= 0.492  step= 0.780 mean= 0.492
 gam= 0.188 g(H,U,f)=  0.687E-03 0.294E-04 0.408E-38 ort(H,U,f) =-0.671E-05 0.427E-05-0.902E-38
CGA:  12    -0.120724207312E+03   -0.14832E-02   -0.14835E-02  4800   0.716E-03-0.244E-05
 gam= 0.188 trial= 0.506  step= 0.911 mean= 0.506
 gam= 0.208 g(H,U,f)=  0.138E-03 0.110E-04 0.107E-62 ort(H,U,f) =-0.677E-05 0.111E-04 0.765E-63
CGA:  13    -0.120724534290E+03   -0.32698E-03   -0.32608E-03  4800   0.149E-03 0.433E-05
 gam= 0.208 trial= 0.527  step= 0.811 mean= 0.527
 gam= 0.258 g(H,U,f)=  0.348E-04 0.368E-05 0.108E-66 ort(H,U,f) =-0.401E-05 0.614E-05 0.203E-66
CGA:  14    -0.120724595456E+03   -0.61165E-04   -0.60861E-04  4800   0.385E-04 0.214E-05
 gam= 0.258 trial= 0.541  step= 0.776 mean= 0.541
 gam= 0.267 g(H,U,f)=  0.951E-05 0.764E-06 0.289E-79 ort(H,U,f) =-0.194E-05 0.212E-05 0.869E-79
CGA:  15    -0.120724610633E+03   -0.15177E-04   -0.15155E-04  4800   0.103E-04 0.184E-06
 gam= 0.267 trial= 0.553  step= 0.778 mean= 0.553
 gam= 0.292 g(H,U,f)=  0.280E-05 0.198E-06 0.677E-21 ort(H,U,f) =-0.684E-06 0.516E-06 0.146E-20
CGA:  16    -0.120724614629E+03   -0.39961E-05   -0.40151E-05  4800   0.300E-05-0.168E-06
 gam= 0.292 trial= 0.564  step= 0.800 mean= 0.564
 final diagonalization
   1 F= -.12072461E+03 E0= -.12072461E+03  d E =-.120725E+03
 curvature:   0.00 expect dE= 0.000E+00 dE for cont linesearch  0.000E+00
 trial: gam= 0.00000 g(F)=  0.854E-02 g(S)=  0.634E-01 ort = 0.000E+00 (trialstep = 0.100E+01)
 search vector abs. value=  0.719E-01
 bond charge predicted
 wavefunctions rotated
       N       E                     dE             d eps       ncg     rms          ort
 gam= 0.000 g(H,U,f)=  0.370E+00 0.254E-02 0.331E-68 ort(H,U,f) = 0.000E+00 0.000E+00 0.000E+00
SDA:   1    -0.120579443849E+03    0.14517E+00    0.00000E+00  4800   0.372E+00 0.000E+00
 gam= 0.000 trial= 0.576  step= 0.713 mean= 0.576
 gam= 0.132 g(H,U,f)=  0.456E-01 0.348E-02 0.298E-61 ort(H,U,f) =-0.576E-03 0.588E-03 0.100E-61
CGA:   2    -0.120712226413E+03   -0.13278E+00   -0.13278E+00  4800   0.491E-01 0.115E-04
 gam= 0.132 trial= 0.583  step= 0.656 mean= 0.583
 gam= 0.159 g(H,U,f)=  0.722E-02 0.580E-03 0.320E-19 ort(H,U,f) =-0.107E-02 0.111E-02 0.658E-20
CGA:   3    -0.120728345217E+03   -0.16119E-01   -0.16116E-01  4800   0.780E-02 0.462E-04
 gam= 0.159 trial= 0.586  step= 0.661 mean= 0.586
 gam= 0.183 g(H,U,f)=  0.115E-02 0.279E-03 0.260E-63 ort(H,U,f) =-0.500E-03 0.518E-03 0.600E-63
CGA:   4    -0.120730926227E+03   -0.25810E-02   -0.25803E-02  4800   0.143E-02 0.175E-04
 gam= 0.183 trial= 0.590  step= 0.763 mean= 0.590
 gam= 0.280 g(H,U,f)=  0.293E-03 0.109E-03 0.297E-63 ort(H,U,f) =-0.226E-03 0.231E-03 0.674E-63
CGA:   5    -0.120731474110E+03   -0.54788E-03   -0.54750E-03  4800   0.401E-03 0.466E-05
 gam= 0.280 trial= 0.599  step= 0.870 mean= 0.599
 gam= 0.325 g(H,U,f)=  0.117E-03 0.136E-04 0.731E-63 ort(H,U,f) =-0.583E-04 0.564E-04 0.312E-62
CGA:   6    -0.120731649033E+03   -0.17492E-03   -0.17517E-03  4800   0.130E-03-0.184E-05
 gam= 0.325 trial= 0.612  step= 0.696 mean= 0.612
 gam= 0.186 g(H,U,f)=  0.222E-04 0.202E-05 0.133E-21 ort(H,U,f) =-0.144E-04 0.124E-04 0.365E-21
CGA:   7    -0.120731694092E+03   -0.45059E-04   -0.45142E-04  4800   0.242E-04-0.198E-05
 gam= 0.186 trial= 0.616  step= 0.710 mean= 0.616
 gam= 0.200 g(H,U,f)=  0.466E-05 0.184E-06 0.329E-21 ort(H,U,f) =-0.149E-05 0.114E-05 0.105E-20
CGA:   8    -0.120731702537E+03   -0.84459E-05   -0.84622E-05  4800   0.485E-05-0.348E-06
 gam= 0.200 trial= 0.621  step= 0.634 mean= 0.621
 final diagonalization
   2 F= -.12073170E+03 E0= -.12073170E+03  d E =-.708791E-02
 trial-energy change:   -0.007088  1 .order   -0.006459   -0.071907    0.058989
 step:   0.5565(harm=  0.5493)  dis= 0.00347  next Energy=  -120.744730 (dE=-0.201E-01)
 bond charge predicted
 wavefunctions rotated
       N       E                     dE             d eps       ncg     rms          ort
 gam= 0.000 g(H,U,f)=  0.631E-01 0.485E-03 0.261E-30 ort(H,U,f) = 0.000E+00 0.000E+00 0.000E+00
SDA:   1    -0.120714887322E+03    0.16807E-01    0.00000E+00  4800   0.636E-01 0.000E+00
 gam= 0.000 trial= 0.622  step= 0.829 mean= 0.622
 gam= 0.142 g(H,U,f)=  0.842E-02 0.588E-03 0.135E-31 ort(H,U,f) =-0.380E-04 0.343E-04 0.510E-32
CGA:   2    -0.120741248804E+03   -0.26361E-01   -0.26361E-01  4800   0.901E-02-0.369E-05
 gam= 0.142 trial= 0.632  step= 0.651 mean= 0.632
 gam= 0.152 g(H,U,f)=  0.126E-02 0.111E-03 0.178E-32 ort(H,U,f) =-0.209E-03 0.199E-03 0.426E-32
CGA:   3    -0.120744178530E+03   -0.29297E-02   -0.29298E-02  4800   0.137E-02-0.949E-05
 gam= 0.152 trial= 0.633  step= 0.687 mean= 0.633
 gam= 0.137 g(H,U,f)=  0.132E-03 0.567E-04 0.520E-31 ort(H,U,f) =-0.107E-03 0.967E-04 0.126E-30
CGA:   4    -0.120744648109E+03   -0.46958E-03   -0.46986E-03  4800   0.188E-03-0.101E-04
 gam= 0.137 trial= 0.636  step= 0.989 mean= 0.636
 gam= 0.334 g(H,U,f)=  0.488E-04 0.141E-04 0.191E-30 ort(H,U,f) =-0.358E-04 0.337E-04 0.405E-30
CGA:   5    -0.120744740102E+03   -0.91994E-04   -0.92378E-04  4800   0.629E-04-0.216E-05
 gam= 0.334 trial= 0.653  step= 0.835 mean= 0.653
 gam= 0.230 g(H,U,f)=  0.127E-04 0.179E-05 0.501E-30 ort(H,U,f) =-0.664E-05 0.869E-05 0.262E-29
CGA:   6    -0.120744766250E+03   -0.26148E-04   -0.25962E-04  4800   0.144E-04 0.205E-05
 gam= 0.230 trial= 0.662  step= 0.673 mean= 0.662
 gam= 0.182 g(H,U,f)=  0.237E-05 0.265E-06 0.272E-30 ort(H,U,f) =-0.727E-06 0.143E-05 0.198E-29
CGA:   7    -0.120744771271E+03   -0.50210E-05   -0.50173E-05  4800   0.263E-05 0.702E-06
 gam= 0.182 trial= 0.663  step= 0.797 mean= 0.663
 final diagonalization
   3 F= -.12074477E+03 E0= -.12074477E+03  d E =-.201566E-01
 curvature:  -0.27 expect dE=-0.648E-03 dE for cont linesearch -0.265E-08
 trial: gam= 0.03317 g(F)=  0.215E-02 g(S)=  0.204E-03 ort =-0.263E-04 (trialstep = 0.911E+00)
 search vector abs. value=  0.244E-02
 bond charge predicted
 wavefunctions rotated
       N       E                     dE             d eps       ncg     rms          ort
 gam= 0.000 g(H,U,f)=  0.316E-01 0.381E-03 0.716E-20 ort(H,U,f) = 0.000E+00 0.000E+00 0.000E+00
SDA:   1    -0.120732481975E+03    0.12284E-01    0.00000E+00  4800   0.320E-01 0.000E+00
 gam= 0.000 trial= 0.670  step= 0.674 mean= 0.670
 gam= 0.140 g(H,U,f)=  0.428E-02 0.201E-03 0.207E-18 ort(H,U,f) = 0.272E-03-0.261E-03-0.122E-18
CGA:   2    -0.120743258983E+03   -0.10777E-01   -0.10777E-01  4800   0.448E-02 0.112E-04
 gam= 0.140 trial= 0.670  step= 0.733 mean= 0.670
 gam= 0.086 g(H,U,f)=  0.355E-03 0.281E-04 0.203E-20 ort(H,U,f) =-0.483E-04 0.453E-04 0.845E-20
CGA:   3    -0.120744901427E+03   -0.16424E-02   -0.16425E-02  4800   0.384E-03-0.301E-05
 gam= 0.086 trial= 0.673  step= 0.665 mean= 0.673
 gam= 0.218 g(H,U,f)=  0.726E-04 0.110E-04 0.164E-21 ort(H,U,f) =-0.184E-04 0.197E-04 0.543E-21
CGA:   4    -0.120745028936E+03   -0.12751E-03   -0.12751E-03  4800   0.837E-04 0.128E-05
 gam= 0.218 trial= 0.673  step= 0.646 mean= 0.673
 gam= 0.272 g(H,U,f)=  0.188E-04 0.393E-05 0.631E-22 ort(H,U,f) =-0.796E-05 0.901E-05 0.130E-21
CGA:   5    -0.120745056026E+03   -0.27090E-04   -0.27104E-04  4800   0.227E-04 0.104E-05
 gam= 0.272 trial= 0.671  step= 0.813 mean= 0.671
 gam= 0.276 g(H,U,f)=  0.554E-05 0.744E-06 0.118E-22 ort(H,U,f) =-0.275E-05 0.267E-05-0.926E-23
CGA:   6    -0.120745065380E+03   -0.93543E-05   -0.93599E-05  4800   0.628E-05-0.791E-07
 gam= 0.276 trial= 0.678  step= 0.707 mean= 0.678
 final diagonalization
   4 F= -.12074507E+03 E0= -.12074507E+03  d E =-.294109E-03
 trial-energy change:   -0.000294  1 .order   -0.000293   -0.002149    0.001563
 step:   0.5276(harm=  0.5276)  dis= 0.00190  next Energy=  -120.745393 (dE=-0.622E-03)
 bond charge predicted
 wavefunctions rotated
       N       E                     dE             d eps       ncg     rms          ort
 gam= 0.000 g(H,U,f)=  0.477E-02 0.665E-04 0.302E-16 ort(H,U,f) = 0.000E+00 0.000E+00 0.000E+00
SDA:   1    -0.120743172116E+03    0.18839E-02    0.00000E+00  4800   0.483E-02 0.000E+00
 gam= 0.000 trial= 0.680  step= 0.789 mean= 0.680
 gam= 0.164 g(H,U,f)=  0.752E-03 0.404E-04 0.759E-17 ort(H,U,f) = 0.439E-04-0.493E-04-0.746E-17
CGA:   2    -0.120745078909E+03   -0.19068E-02   -0.19071E-02  4800   0.792E-03-0.535E-05
 gam= 0.164 trial= 0.685  step= 0.731 mean= 0.685
 gam= 0.075 g(H,U,f)=  0.537E-04 0.613E-05 0.619E-17 ort(H,U,f) =-0.820E-05 0.942E-05 0.121E-16
CGA:   3    -0.120745368348E+03   -0.28944E-03   -0.28941E-03  4800   0.598E-04 0.122E-05
 gam= 0.075 trial= 0.688  step= 0.764 mean= 0.688
 gam= 0.220 g(H,U,f)=  0.109E-04 0.227E-05 0.740E-17 ort(H,U,f) =-0.463E-05 0.402E-05 0.167E-16
CGA:   4    -0.120745391187E+03   -0.22839E-04   -0.22862E-04  4800   0.132E-04-0.608E-06
 gam= 0.220 trial= 0.691  step= 0.781 mean= 0.691
 gam= 0.318 g(H,U,f)=  0.365E-05 0.529E-06 0.152E-16 ort(H,U,f) =-0.181E-05 0.148E-05 0.362E-16
CGA:   5    -0.120745396261E+03   -0.50743E-05   -0.50891E-05  4800   0.418E-05-0.332E-06
 gam= 0.318 trial= 0.696  step= 0.788 mean= 0.696
 final diagonalization
   5 F= -.12074540E+03 E0= -.12074540E+03  d E =-.624990E-03
 curvature:  -0.27 expect dE=-0.327E-04 dE for cont linesearch -0.396E-07
 trial: gam= 0.05966 g(F)=  0.899E-04 g(S)=  0.302E-04 ort =-0.188E-04 (trialstep = 0.835E+00)
 search vector abs. value=  0.126E-03
 bond charge predicted
 wavefunctions rotated
       N       E                     dE             d eps       ncg     rms          ort
 gam= 0.000 g(H,U,f)=  0.914E-03 0.990E-05 0.106E-21 ort(H,U,f) = 0.000E+00 0.000E+00 0.000E+00
SDA:   1    -0.120745009389E+03    0.38180E-03    0.00000E+00  4800   0.924E-03 0.000E+00
 gam= 0.000 trial= 0.701  step= 0.843 mean= 0.701
 gam= 0.161 g(H,U,f)=  0.139E-03 0.962E-05 0.155E-22 ort(H,U,f) = 0.629E-05-0.737E-05-0.395E-22
CGA:   2    -0.120745398896E+03   -0.38951E-03   -0.38959E-03  4800   0.148E-03-0.108E-05
 gam= 0.161 trial= 0.708  step= 0.697 mean= 0.708
 gam= 0.085 g(H,U,f)=  0.112E-04 0.142E-05 0.739E-20 ort(H,U,f) =-0.239E-05 0.287E-05 0.205E-21
CGA:   3    -0.120745450543E+03   -0.51646E-04   -0.51649E-04  4800   0.126E-04 0.484E-06
 gam= 0.085 trial= 0.707  step= 0.797 mean= 0.707
 gam= 0.246 g(H,U,f)=  0.265E-05 0.454E-06 0.263E-20 ort(H,U,f) =-0.120E-05 0.882E-06 0.640E-20
CGA:   4    -0.120745455568E+03   -0.50253E-05   -0.50395E-05  4800   0.310E-05-0.314E-06
 gam= 0.246 trial= 0.712  step= 0.792 mean= 0.712
 final diagonalization
   6 F= -.12074546E+03 E0= -.12074546E+03  d E =-.593067E-04
 trial-energy change:   -0.000059  1 .order   -0.000061   -0.000099   -0.000023
 step:   1.0829(harm=  1.0829)  dis= 0.00075  next Energy=  -120.745461 (dE=-0.644E-04)
 reached required accuracy - stopping structural energy minimisation
 PROFILE, used timers:     523
