<?xml version="1.0" encoding="ISO-8859-1"?>
<modeling>
 <generator>
  <i name="program" type="string">vasp </i>
  <i name="version" type="string">6.3.2  </i>
  <i name="subversion" type="string">27Jun22 (build Jan 18 2024 14:18:24) complex                          parallel </i>
  <i name="platform" type="string">LinuxNV_CrayMPICH </i>
  <i name="date" type="string">2024 05 24 </i>
  <i name="time" type="string">10:43:32 </i>
 </generator>
 <incar>
  <i type="string" name="SYSTEM">B12BeN2</i>
  <i type="int" name="ISTART">     0</i>
  <i type="string" name="PREC">Accurate</i>
  <i type="string" name="ALGO">All</i>
  <i type="int" name="ICHARG">     2</i>
  <i type="int" name="IBRION">     2</i>
  <i name="EDIFF">      0.00001000</i>
  <i name="EDIFFG">     -0.01000000</i>
  <i type="int" name="NSW">  1000</i>
  <i type="int" name="ISIF">     3</i>
  <i name="ENCUT">    500.00000000</i>
  <i type="int" name="ISMEAR">     0</i>
  <i name="SIGMA">      0.01000000</i>
  <i type="logical" name="LWAVE"> F  </i>
  <i type="logical" name="LCHARG"> F  </i>
  <i name="HFSCREEN">      0.20000000</i>
  <i type="logical" name="LHFCALC"> T  </i>
  <i type="string" name="GGA">PE</i>
  <i name="AEXX">      0.25000000</i>
 </incar>
 <primitive_cell>
  <structure name="primitive_cell" >
   <crystal>
    <varray name="basis" >
     <v>       5.23500000       0.00000000       0.00000000 </v>
     <v>      -2.36379301       4.67094291       0.00000000 </v>
     <v>      -2.36379301       1.45301262       4.43919609 </v>
    </varray>
    <i name="volume">    108.54893683 </i>
    <varray name="rec_basis" >
     <v>       0.19102197       0.09666922       0.07007458 </v>
     <v>       0.00000000       0.21408954      -0.07007458 </v>
     <v>       0.00000000      -0.00000000       0.22526601 </v>
    </varray>
   </crystal>
   <varray name="positions" >
    <v>       0.50000000       0.50000000       0.50000000 </v>
    <v>       0.66925000       0.00367000       0.00367000 </v>
    <v>       0.99633000       0.33075000       0.00367000 </v>
    <v>       0.32360000       0.19706000       0.19706000 </v>
    <v>       0.80294000       0.67640000       0.19706000 </v>
    <v>       0.19706000       0.80295000       0.32360000 </v>
    <v>       0.99633000       0.00367000       0.33075000 </v>
    <v>       0.00367000       0.99633000       0.66925000 </v>
    <v>       0.80295000       0.19706000       0.67640000 </v>
    <v>       0.19706000       0.32360000       0.80294000 </v>
    <v>       0.67640000       0.80294000       0.80294000 </v>
    <v>       0.00367000       0.66925000       0.99633000 </v>
    <v>       0.33075000       0.99633000       0.99633000 </v>
    <v>       0.62370000       0.37630000       0.37630000 </v>
    <v>       0.37630000       0.62370000       0.62370000 </v>
   </varray>
  </structure>
  <varray name="primitive_index" >
   <v type="int" >        1 </v>
   <v type="int" >        2 </v>
   <v type="int" >        3 </v>
   <v type="int" >        4 </v>
   <v type="int" >        5 </v>
   <v type="int" >        6 </v>
   <v type="int" >        7 </v>
   <v type="int" >        8 </v>
   <v type="int" >        9 </v>
   <v type="int" >       10 </v>
   <v type="int" >       11 </v>
   <v type="int" >       12 </v>
   <v type="int" >       13 </v>
   <v type="int" >       14 </v>
   <v type="int" >       15 </v>
  </varray>
 </primitive_cell>
 <kpoints>
  <generation param="Gamma">
   <v type="int" name="divisions">       8        8        8 </v>
   <v name="usershift">      0.00000000       0.00000000       0.00000000 </v>
   <v name="genvec1">      0.12500000      -0.00000000      -0.00000000 </v>
   <v name="genvec2">      0.00000000       0.12500000      -0.00000000 </v>
   <v name="genvec3">      0.00000000       0.00000000       0.12500000 </v>
   <v name="shift">      0.00000000       0.00000000       0.00000000 </v>
  </generation>
  <varray name="kpointlist" >
   <v>       0.00000000       0.00000000       0.00000000 </v>
   <v>       0.12500000       0.00000000       0.00000000 </v>
   <v>       0.00000000       0.00000000       0.12500000 </v>
   <v>       0.25000000       0.00000000       0.00000000 </v>
   <v>       0.00000000       0.00000000       0.25000000 </v>
   <v>       0.37500000       0.00000000       0.00000000 </v>
   <v>       0.00000000       0.00000000       0.37500000 </v>
   <v>       0.50000000       0.00000000       0.00000000 </v>
   <v>       0.00000000       0.00000000       0.50000000 </v>
   <v>       0.12500000       0.12500000       0.00000000 </v>
   <v>       0.00000000      -0.12500000       0.12500000 </v>
   <v>       0.25000000       0.12500000       0.00000000 </v>
   <v>       0.00000000      -0.12500000       0.25000000 </v>
   <v>       0.00000000      -0.25000000       0.12500000 </v>
   <v>       0.37500000       0.12500000       0.00000000 </v>
   <v>       0.00000000      -0.12500000       0.37500000 </v>
   <v>       0.00000000      -0.37500000       0.12500000 </v>
   <v>       0.50000000       0.12500000       0.00000000 </v>
   <v>       0.00000000      -0.12500000       0.50000000 </v>
   <v>       0.00000000       0.50000000       0.12500000 </v>
   <v>      -0.37500000       0.12500000       0.00000000 </v>
   <v>       0.00000000      -0.12500000      -0.37500000 </v>
   <v>       0.00000000       0.37500000       0.12500000 </v>
   <v>      -0.25000000       0.12500000       0.00000000 </v>
   <v>       0.00000000      -0.12500000      -0.25000000 </v>
   <v>       0.00000000       0.25000000       0.12500000 </v>
   <v>      -0.12500000       0.12500000       0.00000000 </v>
   <v>       0.00000000      -0.12500000      -0.12500000 </v>
   <v>       0.25000000       0.25000000       0.00000000 </v>
   <v>       0.00000000      -0.25000000       0.25000000 </v>
   <v>       0.37500000       0.25000000       0.00000000 </v>
   <v>       0.00000000      -0.25000000       0.37500000 </v>
   <v>       0.00000000      -0.37500000       0.25000000 </v>
   <v>       0.50000000       0.25000000       0.00000000 </v>
   <v>       0.00000000      -0.25000000       0.50000000 </v>
   <v>       0.00000000       0.50000000       0.25000000 </v>
   <v>      -0.37500000       0.25000000       0.00000000 </v>
   <v>       0.00000000      -0.25000000      -0.37500000 </v>
   <v>       0.00000000       0.37500000       0.25000000 </v>
   <v>      -0.25000000       0.25000000       0.00000000 </v>
   <v>       0.00000000      -0.25000000      -0.25000000 </v>
   <v>       0.37500000       0.37500000       0.00000000 </v>
   <v>       0.00000000      -0.37500000       0.37500000 </v>
   <v>       0.50000000       0.37500000       0.00000000 </v>
   <v>       0.00000000      -0.37500000       0.50000000 </v>
   <v>       0.00000000       0.50000000       0.37500000 </v>
   <v>      -0.37500000       0.37500000       0.00000000 </v>
   <v>       0.00000000      -0.37500000      -0.37500000 </v>
   <v>       0.50000000       0.50000000       0.00000000 </v>
   <v>       0.00000000       0.50000000       0.50000000 </v>
   <v>       0.12500000       0.12500000       0.12500000 </v>
   <v>       0.12500000      -0.12500000       0.12500000 </v>
   <v>       0.25000000       0.12500000       0.12500000 </v>
   <v>       0.12500000      -0.12500000       0.25000000 </v>
   <v>       0.37500000       0.12500000       0.12500000 </v>
   <v>       0.12500000      -0.12500000       0.37500000 </v>
   <v>       0.50000000       0.12500000       0.12500000 </v>
   <v>       0.12500000      -0.12500000       0.50000000 </v>
   <v>      -0.37500000       0.12500000       0.12500000 </v>
   <v>       0.12500000      -0.12500000      -0.37500000 </v>
   <v>      -0.25000000       0.12500000       0.12500000 </v>
   <v>       0.12500000      -0.12500000      -0.25000000 </v>
   <v>      -0.12500000       0.12500000       0.12500000 </v>
   <v>       0.12500000       0.25000000       0.12500000 </v>
   <v>       0.12500000      -0.25000000       0.12500000 </v>
   <v>      -0.12500000      -0.12500000       0.25000000 </v>
   <v>       0.25000000       0.25000000       0.12500000 </v>
   <v>       0.12500000      -0.25000000       0.25000000 </v>
   <v>      -0.12500000      -0.25000000       0.25000000 </v>
   <v>       0.37500000       0.25000000       0.12500000 </v>
   <v>       0.12500000      -0.25000000       0.37500000 </v>
   <v>      -0.12500000      -0.37500000       0.25000000 </v>
   <v>       0.50000000       0.25000000       0.12500000 </v>
   <v>       0.12500000      -0.25000000       0.50000000 </v>
   <v>      -0.12500000       0.50000000       0.25000000 </v>
   <v>      -0.37500000       0.25000000       0.12500000 </v>
   <v>       0.12500000      -0.25000000      -0.37500000 </v>
   <v>      -0.12500000       0.37500000       0.25000000 </v>
   <v>      -0.25000000       0.25000000       0.12500000 </v>
   <v>       0.12500000      -0.25000000      -0.25000000 </v>
   <v>       0.12500000       0.37500000       0.12500000 </v>
   <v>       0.12500000      -0.37500000       0.12500000 </v>
   <v>      -0.12500000      -0.12500000       0.37500000 </v>
   <v>       0.25000000       0.37500000       0.12500000 </v>
   <v>       0.12500000      -0.37500000       0.25000000 </v>
   <v>      -0.12500000      -0.25000000       0.37500000 </v>
   <v>       0.37500000       0.37500000       0.12500000 </v>
   <v>       0.12500000      -0.37500000       0.37500000 </v>
   <v>      -0.12500000      -0.37500000       0.37500000 </v>
   <v>       0.50000000       0.37500000       0.12500000 </v>
   <v>       0.12500000      -0.37500000       0.50000000 </v>
   <v>      -0.12500000       0.50000000       0.37500000 </v>
   <v>      -0.37500000       0.37500000       0.12500000 </v>
   <v>       0.12500000      -0.37500000      -0.37500000 </v>
   <v>       0.12500000       0.50000000       0.12500000 </v>
   <v>      -0.12500000      -0.12500000       0.50000000 </v>
   <v>       0.25000000       0.50000000       0.12500000 </v>
   <v>       0.12500000       0.50000000       0.25000000 </v>
   <v>      -0.12500000      -0.25000000       0.50000000 </v>
   <v>       0.37500000       0.50000000       0.12500000 </v>
   <v>       0.12500000       0.50000000       0.37500000 </v>
   <v>      -0.12500000      -0.37500000       0.50000000 </v>
   <v>       0.50000000       0.50000000       0.12500000 </v>
   <v>       0.12500000       0.50000000       0.50000000 </v>
   <v>       0.25000000      -0.37500000       0.12500000 </v>
   <v>       0.12500000       0.37500000       0.25000000 </v>
   <v>      -0.12500000      -0.25000000      -0.37500000 </v>
   <v>       0.37500000      -0.37500000       0.12500000 </v>
   <v>       0.12500000       0.37500000       0.37500000 </v>
   <v>       0.25000000      -0.25000000       0.12500000 </v>
   <v>       0.12500000       0.25000000       0.25000000 </v>
   <v>       0.25000000       0.25000000       0.25000000 </v>
   <v>       0.25000000      -0.25000000       0.25000000 </v>
   <v>       0.37500000       0.25000000       0.25000000 </v>
   <v>       0.25000000      -0.25000000       0.37500000 </v>
   <v>       0.50000000       0.25000000       0.25000000 </v>
   <v>       0.25000000      -0.25000000       0.50000000 </v>
   <v>      -0.37500000       0.25000000       0.25000000 </v>
   <v>       0.25000000      -0.25000000      -0.37500000 </v>
   <v>      -0.25000000       0.25000000       0.25000000 </v>
   <v>       0.25000000       0.37500000       0.25000000 </v>
   <v>       0.25000000      -0.37500000       0.25000000 </v>
   <v>      -0.25000000      -0.25000000       0.37500000 </v>
   <v>       0.37500000       0.37500000       0.25000000 </v>
   <v>       0.25000000      -0.37500000       0.37500000 </v>
   <v>      -0.25000000      -0.37500000       0.37500000 </v>
   <v>       0.50000000       0.37500000       0.25000000 </v>
   <v>       0.25000000      -0.37500000       0.50000000 </v>
   <v>      -0.25000000       0.50000000       0.37500000 </v>
   <v>      -0.37500000       0.37500000       0.25000000 </v>
   <v>       0.25000000      -0.37500000      -0.37500000 </v>
   <v>       0.25000000       0.50000000       0.25000000 </v>
   <v>      -0.25000000      -0.25000000       0.50000000 </v>
   <v>       0.37500000       0.50000000       0.25000000 </v>
   <v>       0.25000000       0.50000000       0.37500000 </v>
   <v>      -0.25000000      -0.37500000       0.50000000 </v>
   <v>       0.50000000       0.50000000       0.25000000 </v>
   <v>       0.25000000       0.50000000       0.50000000 </v>
   <v>       0.37500000      -0.37500000       0.25000000 </v>
   <v>       0.25000000       0.37500000       0.37500000 </v>
   <v>       0.37500000       0.37500000       0.37500000 </v>
   <v>       0.37500000      -0.37500000       0.37500000 </v>
   <v>       0.50000000       0.37500000       0.37500000 </v>
   <v>       0.37500000      -0.37500000       0.50000000 </v>
   <v>      -0.37500000       0.37500000       0.37500000 </v>
   <v>       0.37500000       0.50000000       0.37500000 </v>
   <v>      -0.37500000      -0.37500000       0.50000000 </v>
   <v>       0.50000000       0.50000000       0.37500000 </v>
   <v>       0.37500000       0.50000000       0.50000000 </v>
   <v>       0.50000000       0.50000000       0.50000000 </v>
  </varray>
  <varray name="weights" >
   <v>       0.00195313 </v>
   <v>       0.00781250 </v>
   <v>       0.00390625 </v>
   <v>       0.00781250 </v>
   <v>       0.00390625 </v>
   <v>       0.00781250 </v>
   <v>       0.00390625 </v>
   <v>       0.00390625 </v>
   <v>       0.00195313 </v>
   <v>       0.00390625 </v>
   <v>       0.00781250 </v>
   <v>       0.00781250 </v>
   <v>       0.00781250 </v>
   <v>       0.00781250 </v>
   <v>       0.00781250 </v>
   <v>       0.00781250 </v>
   <v>       0.00781250 </v>
   <v>       0.00781250 </v>
   <v>       0.00781250 </v>
   <v>       0.00781250 </v>
   <v>       0.00781250 </v>
   <v>       0.00781250 </v>
   <v>       0.00781250 </v>
   <v>       0.00781250 </v>
   <v>       0.00781250 </v>
   <v>       0.00781250 </v>
   <v>       0.00390625 </v>
   <v>       0.00781250 </v>
   <v>       0.00390625 </v>
   <v>       0.00781250 </v>
   <v>       0.00781250 </v>
   <v>       0.00781250 </v>
   <v>       0.00781250 </v>
   <v>       0.00781250 </v>
   <v>       0.00781250 </v>
   <v>       0.00781250 </v>
   <v>       0.00781250 </v>
   <v>       0.00781250 </v>
   <v>       0.00781250 </v>
   <v>       0.00390625 </v>
   <v>       0.00781250 </v>
   <v>       0.00390625 </v>
   <v>       0.00781250 </v>
   <v>       0.00781250 </v>
   <v>       0.00781250 </v>
   <v>       0.00781250 </v>
   <v>       0.00390625 </v>
   <v>       0.00781250 </v>
   <v>       0.00195313 </v>
   <v>       0.00390625 </v>
   <v>       0.00781250 </v>
   <v>       0.00390625 </v>
   <v>       0.00781250 </v>
   <v>       0.00390625 </v>
   <v>       0.00781250 </v>
   <v>       0.00390625 </v>
   <v>       0.00781250 </v>
   <v>       0.00390625 </v>
   <v>       0.00781250 </v>
   <v>       0.00390625 </v>
   <v>       0.00781250 </v>
   <v>       0.00390625 </v>
   <v>       0.00390625 </v>
   <v>       0.00781250 </v>
   <v>       0.00781250 </v>
   <v>       0.00781250 </v>
   <v>       0.00781250 </v>
   <v>       0.00781250 </v>
   <v>       0.00781250 </v>
   <v>       0.00781250 </v>
   <v>       0.00781250 </v>
   <v>       0.00781250 </v>
   <v>       0.00781250 </v>
   <v>       0.00781250 </v>
   <v>       0.00781250 </v>
   <v>       0.00781250 </v>
   <v>       0.00781250 </v>
   <v>       0.00781250 </v>
   <v>       0.00390625 </v>
   <v>       0.00781250 </v>
   <v>       0.00781250 </v>
   <v>       0.00781250 </v>
   <v>       0.00781250 </v>
   <v>       0.00781250 </v>
   <v>       0.00781250 </v>
   <v>       0.00781250 </v>
   <v>       0.00781250 </v>
   <v>       0.00781250 </v>
   <v>       0.00781250 </v>
   <v>       0.00781250 </v>
   <v>       0.00781250 </v>
   <v>       0.00781250 </v>
   <v>       0.00390625 </v>
   <v>       0.00781250 </v>
   <v>       0.00781250 </v>
   <v>       0.00390625 </v>
   <v>       0.00781250 </v>
   <v>       0.00781250 </v>
   <v>       0.00781250 </v>
   <v>       0.00781250 </v>
   <v>       0.00781250 </v>
   <v>       0.00781250 </v>
   <v>       0.00390625 </v>
   <v>       0.00781250 </v>
   <v>       0.00781250 </v>
   <v>       0.00781250 </v>
   <v>       0.00781250 </v>
   <v>       0.00390625 </v>
   <v>       0.00781250 </v>
   <v>       0.00390625 </v>
   <v>       0.00781250 </v>
   <v>       0.00781250 </v>
   <v>       0.00390625 </v>
   <v>       0.00781250 </v>
   <v>       0.00390625 </v>
   <v>       0.00781250 </v>
   <v>       0.00390625 </v>
   <v>       0.00781250 </v>
   <v>       0.00390625 </v>
   <v>       0.00390625 </v>
   <v>       0.00781250 </v>
   <v>       0.00781250 </v>
   <v>       0.00781250 </v>
   <v>       0.00781250 </v>
   <v>       0.00781250 </v>
   <v>       0.00781250 </v>
   <v>       0.00781250 </v>
   <v>       0.00781250 </v>
   <v>       0.00781250 </v>
   <v>       0.00390625 </v>
   <v>       0.00781250 </v>
   <v>       0.00781250 </v>
   <v>       0.00390625 </v>
   <v>       0.00781250 </v>
   <v>       0.00781250 </v>
   <v>       0.00781250 </v>
   <v>       0.00390625 </v>
   <v>       0.00781250 </v>
   <v>       0.00390625 </v>
   <v>       0.00781250 </v>
   <v>       0.00781250 </v>
   <v>       0.00390625 </v>
   <v>       0.00781250 </v>
   <v>       0.00390625 </v>
   <v>       0.00390625 </v>
   <v>       0.00781250 </v>
   <v>       0.00390625 </v>
   <v>       0.00390625 </v>
   <v>       0.00781250 </v>
   <v>       0.00195313 </v>
  </varray>
 </kpoints>
 <parameters>
  <separator name="general" >
   <i type="string" name="SYSTEM">B12BeN2</i>
   <i type="logical" name="LCOMPAT"> F  </i>
  </separator>
  <separator name="electronic" >
   <i type="string" name="PREC">accura</i>
   <i name="ENMAX">    500.00000000</i>
   <i name="ENAUG">    627.11200000</i>
   <i name="EDIFF">      0.00001000</i>
   <i type="int" name="IALGO">    58</i>
   <i type="int" name="IWAVPR">    11</i>
   <i type="int" name="NBANDS">    32</i>
   <i type="int" name="NBANDSLOW">    -1</i>
   <i type="int" name="NBANDSHIGH">    -1</i>
   <i name="NELECT">     48.00000000</i>
   <i type="int" name="TURBO">     0</i>
   <i type="int" name="IRESTART">     0</i>
   <i type="int" name="NREBOOT">     0</i>
   <i type="int" name="NMIN">     0</i>
   <i name="EREF">      0.00000000</i>
   <separator name="electronic smearing" >
    <i type="int" name="ISMEAR">     0</i>
    <i name="SIGMA">      0.01000000</i>
    <i name="KSPACING">      0.50000000</i>
    <i type="logical" name="KGAMMA"> T  </i>
    <i type="logical" name="KBLOWUP"> T  </i>
   </separator>
   <separator name="electronic projectors" >
    <i type="logical" name="LREAL"> F  </i>
    <v name="ROPT">      0.00000000      0.00000000      0.00000000</v>
    <i type="int" name="LMAXPAW">  -100</i>
    <i type="int" name="LMAXMIX">     2</i>
    <i type="logical" name="NLSPLINE"> F  </i>
   </separator>
   <separator name="electronic startup" >
    <i type="int" name="ISTART">     0</i>
    <i type="int" name="ICHARG">     2</i>
    <i type="int" name="INIWAV">     1</i>
   </separator>
   <separator name="electronic spin" >
    <i type="int" name="ISPIN">     1</i>
    <i type="logical" name="LNONCOLLINEAR"> F  </i>
    <v name="MAGMOM">      1.00000000      1.00000000      1.00000000      1.00000000      1.00000000      1.00000000      1.00000000      1.00000000      1.00000000      1.00000000      1.00000000      1.00000000      1.00000000      1.00000000      1.00000000</v>
    <i name="NUPDOWN">     -1.00000000</i>
    <i type="logical" name="LSORBIT"> F  </i>
    <v name="SAXIS">      0.00000000      0.00000000      1.00000000</v>
    <i type="logical" name="LSPIRAL"> F  </i>
    <v name="QSPIRAL">      0.00000000      0.00000000      0.00000000</v>
    <i type="logical" name="LZEROZ"> F  </i>
   </separator>
   <separator name="electronic exchange-correlation" >
    <i type="logical" name="LASPH"> F  </i>
    <i type="logical" name="LMETAGGA"> F  </i>
   </separator>
   <separator name="electronic convergence" >
    <i type="int" name="NELM">    60</i>
    <i type="int" name="NELMDL">    -5</i>
    <i type="int" name="NELMIN">     2</i>
    <i name="ENINI">    500.00000000</i>
    <separator name="electronic convergence detail" >
     <i type="logical" name="LDIAG"> T  </i>
     <i type="logical" name="LSUBROT"> F  </i>
     <i name="WEIMIN">      0.00100000</i>
     <i name="EBREAK">      0.00000008</i>
     <i name="DEPER">      0.30000000</i>
     <i type="int" name="NRMM">     4</i>
     <i name="TIME">      0.40000000</i>
    </separator>
   </separator>
   <separator name="electronic mixer" >
    <i name="AMIX">      0.40000000</i>
    <i name="BMIX">      1.00000000</i>
    <i name="AMIN">      0.10000000</i>
    <i name="AMIX_MAG">      1.60000000</i>
    <i name="BMIX_MAG">      1.00000000</i>
    <separator name="electronic mixer details" >
     <i type="int" name="IMIX">     4</i>
     <i type="logical" name="MIXFIRST"> F  </i>
     <i type="int" name="MAXMIX">   -45</i>
     <i name="WC">    100.00000000</i>
     <i type="int" name="INIMIX">     1</i>
     <i type="int" name="MIXPRE">     1</i>
     <i type="int" name="MREMOVE">     5</i>
    </separator>
   </separator>
   <separator name="electronic dipolcorrection" >
    <i type="logical" name="LDIPOL"> F  </i>
    <i type="logical" name="LMONO"> F  </i>
    <i type="int" name="IDIPOL">     0</i>
    <i name="EPSILON">      1.00000000</i>
    <v name="DIPOL">   -100.00000000   -100.00000000   -100.00000000</v>
    <i name="EFIELD">      0.00000000</i>
   </separator>
  </separator>
  <separator name="grids" >
   <i type="int" name="NGX">    40</i>
   <i type="int" name="NGY">    40</i>
   <i type="int" name="NGZ">    40</i>
   <i type="int" name="NGXF">    80</i>
   <i type="int" name="NGYF">    80</i>
   <i type="int" name="NGZF">    80</i>
   <i type="logical" name="ADDGRID"> F  </i>
  </separator>
  <separator name="ionic" >
   <i type="int" name="NSW">  1000</i>
   <i type="int" name="IBRION">     2</i>
   <i type="int" name="MDALGO">     0</i>
   <i type="int" name="ISIF">     3</i>
   <i name="PSTRESS">      0.00000000</i>
   <i name="EDIFFG">     -0.01000000</i>
   <i type="int" name="NFREE">     1</i>
   <i name="POTIM">      0.50000000</i>
   <i name="SMASS">     -3.00000000</i>
   <i name="SCALEE">      1.00000000</i>
  </separator>
  <separator name="ionic md" >
   <i name="TEBEG">      0.00010000</i>
   <i name="TEEND">      0.00010000</i>
   <i type="int" name="NBLOCK">     1</i>
   <i type="int" name="KBLOCK">  1000</i>
   <i type="int" name="NPACO">   256</i>
   <i name="APACO">     10.00000000</i>
  </separator>
  <separator name="symmetry" >
   <i type="int" name="ISYM">     3</i>
   <i name="SYMPREC">      0.00001000</i>
  </separator>
  <separator name="dos" >
   <i type="int" name="LORBIT">     0</i>
   <v name="RWIGS">     -1.00000000     -1.00000000     -1.00000000</v>
   <i type="int" name="NEDOS">   301</i>
   <i name="EMIN">     10.00000000</i>
   <i name="EMAX">    -10.00000000</i>
   <i name="EFERMI">      0.00000000</i>
  </separator>
  <separator name="writing" >
   <i type="int" name="NWRITE">     2</i>
   <i type="logical" name="LWAVE"> F  </i>
   <i type="logical" name="LDOWNSAMPLE"> F  </i>
   <i type="logical" name="LCHARG"> F  </i>
   <i type="logical" name="LPARD"> F  </i>
   <i type="logical" name="LVTOT"> F  </i>
   <i type="logical" name="LVHAR"> F  </i>
   <i type="logical" name="LELF"> F  </i>
   <i type="logical" name="LOPTICS"> F  </i>
   <v name="STM">      0.00000000      0.00000000      0.00000000      0.00000000      0.00000000      0.00000000      0.00000000</v>
  </separator>
  <separator name="performance" >
   <i type="int" name="NPAR">    32</i>
   <i type="int" name="NSIM">     4</i>
   <i type="int" name="NBLK">    -1</i>
   <i type="logical" name="LPLANE"> T  </i>
   <i type="logical" name="LSCALAPACK"> T  </i>
   <i type="logical" name="LSCAAWARE"> F  </i>
   <i type="logical" name="LSCALU"> F  </i>
   <i type="logical" name="LASYNC"> F  </i>
   <i type="logical" name="LORBITALREAL"> F  </i>
  </separator>
  <separator name="miscellaneous" >
   <i type="int" name="IDIOT">     3</i>
   <i type="int" name="PHON_NSTRUCT">    -1</i>
   <i type="logical" name="LMUSIC"> F  </i>
   <v name="POMASS">      9.01300000     10.81100000     14.00100000</v>
   <v name="DARWINR">      0.00000000      0.00000000      0.00000000</v>
   <v name="DARWINV">      1.00000000      1.00000000      1.00000000</v>
   <i type="logical" name="LCORR"> T  </i>
  </separator>
  <i type="logical" name="GGA_COMPAT"> T  </i>
  <i type="logical" name="LBERRY"> F  </i>
  <i type="int" name="ICORELEVEL">     0</i>
  <i type="logical" name="LDAU"> F  </i>
  <i type="int" name="I_CONSTRAINED_M">     0</i>
  <separator name="electronic exchange-correlation" >
   <i type="string" name="GGA">PE</i>
   <i type="int" name="VOSKOWN">     0</i>
   <i type="logical" name="LHFCALC"> T  </i>
   <i type="string" name="PRECFOCK">normal</i>
   <i type="logical" name="LSYMGRAD"> F  </i>
   <i type="logical" name="LHFONE"> F  </i>
   <i type="logical" name="LRHFCALC"> F  </i>
   <i type="logical" name="LTHOMAS"> F  </i>
   <i type="logical" name="LMODELHF"> F  </i>
   <i type="logical" name="LFOCKACE"> T  </i>
   <i name="ENCUT4O">     -1.00000000</i>
   <i type="int" name="EXXOEP">     0</i>
   <i type="int" name="FOURORBIT">     0</i>
   <i name="AEXX">      0.25000000</i>
   <i name="HFALPHA">     -1.00000000</i>
   <i name="MCALPHA">      0.00000000</i>
   <i name="ALDAX">      0.75000000</i>
   <i name="AGGAX">      0.75000000</i>
   <i name="ALDAC">      1.00000000</i>
   <i name="AGGAC">      1.00000000</i>
   <i type="int" name="NKREDX">     1</i>
   <i type="int" name="NKREDY">     1</i>
   <i type="int" name="NKREDZ">     1</i>
   <i type="logical" name="SHIFTRED"> F  </i>
   <i type="logical" name="ODDONLY"> F  </i>
   <i type="logical" name="EVENONLY"> F  </i>
   <i type="int" name="LMAXFOCK">     4</i>
   <i type="int" name="NMAXFOCKAE">     1</i>
   <i type="logical" name="LFOCKAEDFT"> F  </i>
   <i name="HFSCREEN">      0.20000000</i>
   <i name="HFSCREENC">      0.20000000</i>
   <i type="int" name="NBANDSGWLOW">     1</i>
  </separator>
  <separator name="vdW DFT" >
   <i type="logical" name="LUSE_VDW"> F  </i>
   <i name="Zab_VDW">     -0.84910000</i>
   <i name="PARAM1">      0.12340000</i>
   <i name="PARAM2">      1.00000000</i>
   <i name="PARAM3">      0.00000000</i>
  </separator>
  <separator name="model GW" >
   <i type="int" name="MODEL_GW">     0</i>
   <i name="MODEL_EPS0">      4.34195747</i>
   <i name="MODEL_ALPHA">      1.00000000</i>
  </separator>
  <separator name="linear response parameters" >
   <i type="logical" name="LEPSILON"> F  </i>
   <i type="logical" name="LRPA"> F  </i>
   <i type="logical" name="LNABLA"> F  </i>
   <i type="logical" name="LVEL"> F  </i>
   <i name="CSHIFT">      0.10000000</i>
   <i name="OMEGAMAX">     -1.00000000</i>
   <i name="DEG_THRESHOLD">      0.00200000</i>
   <i name="RTIME">     -0.10000000</i>
   <i name="WPLASMAI">      0.00000000</i>
   <v name="DFIELD">      0.00000000      0.00000000      0.00000000</v>
   <v name="WPLASMA">      0.00000000      0.00000000      0.00000000      0.00000000      0.00000000      0.00000000      0.00000000      0.00000000      0.00000000</v>
  </separator>
  <separator name="orbital magnetization" >
   <i type="logical" name="NUCIND"> F  </i>
   <v name="MAGPOS">      0.00000000      0.00000000      0.00000000</v>
   <i type="logical" name="LNICSALL"> T  </i>
   <i type="logical" name="ORBITALMAG"> F  </i>
   <i type="logical" name="LMAGBLOCH"> F  </i>
   <i type="logical" name="LCHIMAG"> F  </i>
   <i type="logical" name="LGAUGE"> T  </i>
   <i type="int" name="MAGATOM">     0</i>
   <v name="MAGDIPOL">      0.00000000      0.00000000      0.00000000</v>
   <v name="AVECCONST">      0.00000000      0.00000000      0.00000000</v>
  </separator>
  <separator name="response functions" >
   <i type="logical" name="LFINITE_TEMPERATURE"> F  </i>
   <i type="logical" name="LADDER"> F  </i>
   <i type="logical" name="LRPAFORCE"> F  </i>
   <i type="logical" name="LFXC"> F  </i>
   <i type="logical" name="LHARTREE"> T  </i>
   <i type="int" name="IBSE">     0</i>
   <v type="int" name="KPOINT">    -1     0     0     0</v>
   <i type="logical" name="LTCTC"> F  </i>
   <i type="logical" name="LTCTE"> F  </i>
   <i type="logical" name="LTETE"> F  </i>
   <i type="logical" name="LTRIPLET"> F  </i>
   <i type="logical" name="LFXCEPS"> F  </i>
   <i type="logical" name="LFXHEG"> F  </i>
   <i type="int" name="NATURALO">     2</i>
   <i type="logical" name="LHOLEGF"> F  </i>
   <i type="logical" name="L2ORDER"> F  </i>
   <i type="logical" name="LDMP1"> F  </i>
   <i type="logical" name="LMP2LT"> F  </i>
   <i type="logical" name="LSMP2LT"> F  </i>
   <i type="logical" name="LGWLF"> F  </i>
   <i name="ENCUTGW">     -2.00000000</i>
   <i name="ENCUTGWSOFT">     -2.00000000</i>
   <i name="ENCUTLF">     -1.00000000</i>
   <i type="logical" name="LESF_SPLINES"> F  </i>
   <i type="int" name="LMAXMP2">    -1</i>
   <i name="SCISSOR">      0.00000000</i>
   <i type="int" name="NOMEGA">     0</i>
   <i type="int" name="NOMEGAR">     0</i>
   <i type="int" name="NBANDSGW">    -1</i>
   <i type="int" name="NBANDSO">    -1</i>
   <i type="int" name="NBANDSV">    -1</i>
   <i type="int" name="NELMGW">     1</i>
   <i type="int" name="NELMHF">     1</i>
   <i type="int" name="DIM">     3</i>
   <i type="int" name="IESPILON">     4</i>
   <i type="int" name="ANTIRES">     0</i>
   <i name="OMEGAMAX">    -30.00000000</i>
   <i name="OMEGAMIN">    -30.00000000</i>
   <i name="OMEGATL">   -200.00000000</i>
   <i type="int" name="OMEGAGRID">     0</i>
   <i name="CSHIFT">     -0.10000000</i>
   <i type="logical" name="LSELFENERGY"> F  </i>
   <i type="logical" name="LSPECTRAL"> F  </i>
   <i type="logical" name="LSPECTRALGW"> F  </i>
   <i type="logical" name="LSINGLES"> F  </i>
   <i type="logical" name="LFERMIGW"> F  </i>
   <i type="logical" name="ODDONLYGW"> F  </i>
   <i type="logical" name="EVENONLYGW"> F  </i>
   <i type="int" name="NKREDLFX">     1</i>
   <i type="int" name="NKREDLFY">     1</i>
   <i type="int" name="NKREDLFZ">     1</i>
   <i type="int" name="MAXMEM">  2800</i>
   <i type="int" name="TELESCOPE">     0</i>
   <i type="int" name="NTAUPAR">    -1</i>
   <i type="int" name="NOMEGAPAR">    -1</i>
   <i name="DAMP_NEWTON">      0.80000001</i>
   <i name="LAMBDA">      1.00000000</i>
  </separator>
  <separator name="External order field" >
   <i name="OFIELD_KAPPA">      0.00000000</i>
   <v name="OFIELD_K">      0.00000000      0.00000000      0.00000000</v>
   <i name="OFIELD_Q6_NEAR">      0.00000000</i>
   <i name="OFIELD_Q6_FAR">      0.00000000</i>
   <i name="OFIELD_A">      0.00000000</i>
  </separator>
  <separator name="optional k-points parameters" >
   <i type="int" name="KPOINTS_OPT_MODE">     1</i>
   <i type="logical" name="LKPOINTS_OPT"> F  </i>
  </separator>
 </parameters>
 <atominfo>
  <atoms>      15 </atoms>
  <types>       3 </types>
  <array name="atoms" >
   <dimension dim="1">ion</dimension>
   <field type="string">element</field>
   <field type="int">atomtype</field>
   <set>
    <rc><c>Be</c><c>   1</c></rc>
    <rc><c>B </c><c>   2</c></rc>
    <rc><c>B </c><c>   2</c></rc>
    <rc><c>B </c><c>   2</c></rc>
    <rc><c>B </c><c>   2</c></rc>
    <rc><c>B </c><c>   2</c></rc>
    <rc><c>B </c><c>   2</c></rc>
    <rc><c>B </c><c>   2</c></rc>
    <rc><c>B </c><c>   2</c></rc>
    <rc><c>B </c><c>   2</c></rc>
    <rc><c>B </c><c>   2</c></rc>
    <rc><c>B </c><c>   2</c></rc>
    <rc><c>B </c><c>   2</c></rc>
    <rc><c>N </c><c>   3</c></rc>
    <rc><c>N </c><c>   3</c></rc>
   </set>
  </array>
  <array name="atomtypes" >
   <dimension dim="1">type</dimension>
   <field type="int">atomspertype</field>
   <field type="string">element</field>
   <field>mass</field>
   <field>valence</field>
   <field type="string">pseudopotential</field>
   <set>
    <rc><c>   1</c><c>Be</c><c>      9.01300000</c><c>      2.00000000</c><c>  PAW_PBE Be 06Sep2000                  </c></rc>
    <rc><c>  12</c><c>B </c><c>     10.81100000</c><c>      3.00000000</c><c>  PAW_PBE B 06Sep2000                   </c></rc>
    <rc><c>   2</c><c>N </c><c>     14.00100000</c><c>      5.00000000</c><c>  PAW_PBE N 08Apr2002                   </c></rc>
   </set>
  </array>
 </atominfo>
 <structure name="initialpos" >
  <crystal>
   <varray name="basis" >
    <v>       5.23500000       0.00000000       0.00000000 </v>
    <v>      -2.36379301       4.67094291       0.00000000 </v>
    <v>      -2.36379301       1.45301262       4.43919609 </v>
   </varray>
   <i name="volume">    108.54893683 </i>
   <varray name="rec_basis" >
    <v>       0.19102197       0.09666922       0.07007458 </v>
    <v>       0.00000000       0.21408954      -0.07007458 </v>
    <v>       0.00000000      -0.00000000       0.22526601 </v>
   </varray>
  </crystal>
  <varray name="positions" >
   <v>       0.50000000       0.50000000       0.50000000 </v>
   <v>       0.66925000       0.00367000       0.00367000 </v>
   <v>       0.99633000       0.33075000       0.00367000 </v>
   <v>       0.32360000       0.19706000       0.19706000 </v>
   <v>       0.80294000       0.67640000       0.19706000 </v>
   <v>       0.19706000       0.80295000       0.32360000 </v>
   <v>       0.99633000       0.00367000       0.33075000 </v>
   <v>       0.00367000       0.99633000       0.66925000 </v>
   <v>       0.80295000       0.19706000       0.67640000 </v>
   <v>       0.19706000       0.32360000       0.80294000 </v>
   <v>       0.67640000       0.80294000       0.80294000 </v>
   <v>       0.00367000       0.66925000       0.99633000 </v>
   <v>       0.33075000       0.99633000       0.99633000 </v>
   <v>       0.62370000       0.37630000       0.37630000 </v>
   <v>       0.37630000       0.62370000       0.62370000 </v>
  </varray>
 </structure>
 <calculation>
  <scstep>
   <time name="total">    8.19    6.30</time>
   <energy>
    <i name="alphaZ">    144.60427158 </i>
    <i name="ewald">  -1483.41222698 </i>
    <i name="hartreedc">   -206.05983471 </i>
    <i name="XCdc">    131.69722787 </i>
    <i name="pawpsdc">    947.12008062 </i>
    <i name="pawaedc">  -1227.31136974 </i>
    <i name="eentropy">     -0.00018091 </i>
    <i name="bandstr">     81.51386774 </i>
    <i name="atom">   1394.45731649 </i>
    <i name="e_fr_energy">   -217.39084805 </i>
    <i name="e_wo_entrp">   -217.39066714 </i>
    <i name="e_0_energy">   -217.39075759 </i>
   </energy>
  </scstep>
  <scstep>
   <time name="total">    9.60    6.27</time>
   <energy>
    <i name="e_fr_energy">   -428.20744734 </i>
    <i name="e_wo_entrp">   -428.20744734 </i>
    <i name="e_0_energy">   -428.20744734 </i>
   </energy>
  </scstep>
  <scstep>
   <time name="total">    9.34    6.03</time>
   <energy>
    <i name="e_fr_energy">   -430.95482923 </i>
    <i name="e_wo_entrp">   -430.95482923 </i>
    <i name="e_0_energy">   -430.95482923 </i>
   </energy>
  </scstep>
  <scstep>
   <time name="total">   11.73    7.64</time>
   <energy>
    <i name="e_fr_energy">   -430.96326793 </i>
    <i name="e_wo_entrp">   -430.96326793 </i>
    <i name="e_0_energy">   -430.96326793 </i>
   </energy>
  </scstep>
  <scstep>
   <time name="total">  110.62  101.00</time>
   <energy>
    <i name="e_fr_energy">   -128.82302035 </i>
    <i name="e_wo_entrp">   -128.82302035 </i>
    <i name="e_0_energy">   -128.82302035 </i>
   </energy>
  </scstep>
  <scstep>
   <time name="total">  205.86  192.72</time>
   <energy>
    <i name="e_fr_energy">   -114.51041292 </i>
    <i name="e_wo_entrp">   -114.51041292 </i>
    <i name="e_0_energy">   -114.51041292 </i>
   </energy>
  </scstep>
  <scstep>
   <time name="total">  206.35  193.39</time>
   <energy>
    <i name="e_fr_energy">   -120.02884027 </i>
    <i name="e_wo_entrp">   -120.02884027 </i>
    <i name="e_0_energy">   -120.02884027 </i>
   </energy>
  </scstep>
  <scstep>
   <time name="total">  207.78  193.49</time>
   <energy>
    <i name="e_fr_energy">   -120.49474657 </i>
    <i name="e_wo_entrp">   -120.49474657 </i>
    <i name="e_0_energy">   -120.49474657 </i>
   </energy>
  </scstep>
  <scstep>
   <time name="total">  208.20  193.71</time>
   <energy>
    <i name="e_fr_energy">   -120.66856482 </i>
    <i name="e_wo_entrp">   -120.66856482 </i>
    <i name="e_0_energy">   -120.66856482 </i>
   </energy>
  </scstep>
  <scstep>
   <time name="total">  206.58  192.86</time>
   <energy>
    <i name="e_fr_energy">   -120.71410868 </i>
    <i name="e_wo_entrp">   -120.71410868 </i>
    <i name="e_0_energy">   -120.71410868 </i>
   </energy>
  </scstep>
  <scstep>
   <time name="total">  208.47  194.39</time>
   <energy>
    <i name="e_fr_energy">   -120.72272410 </i>
    <i name="e_wo_entrp">   -120.72272410 </i>
    <i name="e_0_energy">   -120.72272410 </i>
   </energy>
  </scstep>
  <scstep>
   <time name="total">  206.58  192.87</time>
   <energy>
    <i name="e_fr_energy">   -120.72420731 </i>
    <i name="e_wo_entrp">   -120.72420731 </i>
    <i name="e_0_energy">   -120.72420731 </i>
   </energy>
  </scstep>
  <scstep>
   <time name="total">  209.01  194.25</time>
   <energy>
    <i name="e_fr_energy">   -120.72453429 </i>
    <i name="e_wo_entrp">   -120.72453429 </i>
    <i name="e_0_energy">   -120.72453429 </i>
   </energy>
  </scstep>
  <scstep>
   <time name="total">  206.85  192.46</time>
   <energy>
    <i name="e_fr_energy">   -120.72459546 </i>
    <i name="e_wo_entrp">   -120.72459546 </i>
    <i name="e_0_energy">   -120.72459546 </i>
   </energy>
  </scstep>
  <scstep>
   <time name="total">  208.62  194.50</time>
   <energy>
    <i name="e_fr_energy">   -120.72461063 </i>
    <i name="e_wo_entrp">   -120.72461063 </i>
    <i name="e_0_energy">   -120.72461063 </i>
   </energy>
  </scstep>
  <scstep>
   <time name="total">  305.66  287.30</time>
   <energy>
    <i name="alphaZ">    144.60427158 </i>
    <i name="ewald">  -1483.41222698 </i>
    <i name="hartreedc">   -266.93998521 </i>
    <i name="XCdc">    104.37427342 </i>
    <i name="pawpsdc">   5055.84853858 </i>
    <i name="pawaedc">  -5049.17475202 </i>
    <i name="eentropy">     -0.00000000 </i>
    <i name="bandstr">   -116.58935133 </i>
    <i name="atom">   1394.45731649 </i>
    <i name="e_fr_energy">   -120.72461463 </i>
    <i name="e_wo_entrp">   -120.72461463 </i>
    <i name="e_0_energy">   -120.72461463 </i>
   </energy>
  </scstep>
  <structure>
   <crystal>
    <varray name="basis" >
     <v>       5.23500000       0.00000000       0.00000000 </v>
     <v>      -2.36379301       4.67094291       0.00000000 </v>
     <v>      -2.36379301       1.45301262       4.43919609 </v>
    </varray>
    <i name="volume">    108.54893683 </i>
    <varray name="rec_basis" >
     <v>       0.19102197       0.09666922       0.07007458 </v>
     <v>       0.00000000       0.21408954      -0.07007458 </v>
     <v>       0.00000000      -0.00000000       0.22526601 </v>
    </varray>
   </crystal>
   <varray name="positions" >
    <v>       0.50000000       0.50000000       0.50000000 </v>
    <v>       0.66925000       0.00367000       0.00367000 </v>
    <v>       0.99633000       0.33075000       0.00367000 </v>
    <v>       0.32360000       0.19706000       0.19706000 </v>
    <v>       0.80294000       0.67640000       0.19706000 </v>
    <v>       0.19706000       0.80295000       0.32360000 </v>
    <v>       0.99633000       0.00367000       0.33075000 </v>
    <v>       0.00367000       0.99633000       0.66925000 </v>
    <v>       0.80295000       0.19706000       0.67640000 </v>
    <v>       0.19706000       0.32360000       0.80294000 </v>
    <v>       0.67640000       0.80294000       0.80294000 </v>
    <v>       0.00367000       0.66925000       0.99633000 </v>
    <v>       0.33075000       0.99633000       0.99633000 </v>
    <v>       0.62370000       0.37630000       0.37630000 </v>
    <v>       0.37630000       0.62370000       0.62370000 </v>
   </varray>
  </structure>
  <varray name="forces" >
   <v>       0.00000043       0.00000070       0.00000000 </v>
   <v>       0.12918612      -0.03400150      -0.02468560 </v>
   <v>       0.08863620      -0.09975053      -0.02461298 </v>
   <v>       0.03119589       0.04033964       0.02896250 </v>
   <v>      -0.02165687      -0.04578450       0.02892955 </v>
   <v>       0.02221532      -0.01443150       0.05295866 </v>
   <v>       0.08841777      -0.05434067      -0.08714747 </v>
   <v>      -0.08840945       0.05435421       0.08714747 </v>
   <v>      -0.02290757       0.01330533      -0.05295866 </v>
   <v>       0.02190707       0.04604943      -0.02896250 </v>
   <v>      -0.03107247      -0.03999677      -0.02892955 </v>
   <v>      -0.08867016       0.09991375       0.02468560 </v>
   <v>      -0.12902515       0.03404490       0.02461298 </v>
   <v>      -0.12043830       0.07423782       0.05409427 </v>
   <v>       0.12062117      -0.07394032      -0.05409427 </v>
  </varray>
  <varray name="stress" >
   <v>     -37.53017548      -0.37369162      -0.26492067 </v>
   <v>      -0.37369162     -37.90839875       0.16284551 </v>
   <v>      -0.26492067       0.16284551     -38.02875897 </v>
  </varray>
  <energy>
   <i name="e_fr_energy">   -120.72461463 </i>
   <i name="e_wo_entrp">   -120.72461463 </i>
   <i name="e_0_energy">   -120.72461463 </i>
  </energy>
  <time name="totalsc"> 2844.30 2654.53</time>
 </calculation>
 <calculation>
  <scstep>
   <time name="total">  208.53  194.47</time>
   <energy>
    <i name="alphaZ">    148.23927796 </i>
    <i name="ewald">  -1493.65748246 </i>
    <i name="hartreedc">   -268.48613180 </i>
    <i name="XCdc">    105.16496837 </i>
    <i name="pawpsdc">   5053.32579982 </i>
    <i name="pawaedc">  -5046.78240708 </i>
    <i name="eentropy">     -0.00000000 </i>
    <i name="bandstr">   -109.77161971 </i>
    <i name="atom">   1394.45731649 </i>
    <i name="e_fr_energy">   -120.57944385 </i>
    <i name="e_wo_entrp">   -120.57944385 </i>
    <i name="e_0_energy">   -120.57944385 </i>
   </energy>
  </scstep>
  <scstep>
   <time name="total">  208.08  193.93</time>
   <energy>
    <i name="e_fr_energy">   -120.71222641 </i>
    <i name="e_wo_entrp">   -120.71222641 </i>
    <i name="e_0_energy">   -120.71222641 </i>
   </energy>
  </scstep>
  <scstep>
   <time name="total">  208.95  193.81</time>
   <energy>
    <i name="e_fr_energy">   -120.72834522 </i>
    <i name="e_wo_entrp">   -120.72834522 </i>
    <i name="e_0_energy">   -120.72834522 </i>
   </energy>
  </scstep>
  <scstep>
   <time name="total">  210.33  195.13</time>
   <energy>
    <i name="e_fr_energy">   -120.73092623 </i>
    <i name="e_wo_entrp">   -120.73092623 </i>
    <i name="e_0_energy">   -120.73092623 </i>
   </energy>
  </scstep>
  <scstep>
   <time name="total">  207.22  194.18</time>
   <energy>
    <i name="e_fr_energy">   -120.73147411 </i>
    <i name="e_wo_entrp">   -120.73147411 </i>
    <i name="e_0_energy">   -120.73147411 </i>
   </energy>
  </scstep>
  <scstep>
   <time name="total">  207.62  194.41</time>
   <energy>
    <i name="e_fr_energy">   -120.73164903 </i>
    <i name="e_wo_entrp">   -120.73164903 </i>
    <i name="e_0_energy">   -120.73164903 </i>
   </energy>
  </scstep>
  <scstep>
   <time name="total">  208.25  194.37</time>
   <energy>
    <i name="e_fr_energy">   -120.73169409 </i>
    <i name="e_wo_entrp">   -120.73169409 </i>
    <i name="e_0_energy">   -120.73169409 </i>
   </energy>
  </scstep>
  <scstep>
   <time name="total">  310.28  290.07</time>
   <energy>
    <i name="alphaZ">    148.23927796 </i>
    <i name="ewald">  -1493.65748246 </i>
    <i name="hartreedc">   -266.72971869 </i>
    <i name="XCdc">    105.07800763 </i>
    <i name="pawpsdc">   5290.63247312 </i>
    <i name="pawaedc">  -5284.03160544 </i>
    <i name="eentropy">     -0.00000000 </i>
    <i name="bandstr">   -111.58991721 </i>
    <i name="atom">   1394.45731649 </i>
    <i name="e_fr_energy">   -120.73170254 </i>
    <i name="e_wo_entrp">   -120.73170254 </i>
    <i name="e_0_energy">   -120.73170254 </i>
   </energy>
  </scstep>
  <structure>
   <crystal>
    <varray name="basis" >
     <v>       5.19218931      -0.00042627      -0.00030220 </v>
     <v>      -2.34484276       4.63255248       0.00030220 </v>
     <v>      -2.34483699       1.44136045       4.40259905 </v>
    </varray>
    <i name="volume">    105.88718561 </i>
    <varray name="rec_basis" >
     <v>       0.19260910       0.09748766       0.07066782 </v>
     <v>       0.00001361       0.21587522      -0.07066782 </v>
     <v>       0.00001322      -0.00000813       0.22714826 </v>
    </varray>
   </crystal>
   <varray name="positions" >
    <v>       0.50000001       0.50000001       0.50000000 </v>
    <v>       0.67019848       0.00340228       0.00340173 </v>
    <v>       0.99659842       0.32980296       0.00340252 </v>
    <v>       0.32417352       0.19737873       0.19737475 </v>
    <v>       0.80262470       0.67582933       0.19737439 </v>
    <v>       0.19737645       0.80262192       0.32417552 </v>
    <v>       0.99659677       0.00340337       0.32980293 </v>
    <v>       0.00340337       0.99659677       0.67019707 </v>
    <v>       0.80262192       0.19737645       0.67582448 </v>
    <v>       0.19737873       0.32417352       0.80262525 </v>
    <v>       0.67582933       0.80262470       0.80262561 </v>
    <v>       0.00340228       0.67019848       0.99659827 </v>
    <v>       0.32980296       0.99659842       0.99659748 </v>
    <v>       0.62311920       0.37688388       0.37688787 </v>
    <v>       0.37688388       0.62311920       0.62311213 </v>
   </varray>
  </structure>
  <varray name="forces" >
   <v>      -0.00000178      -0.00000290      -0.00000000 </v>
   <v>      -0.21492762      -0.05264322      -0.03816446 </v>
   <v>      -0.04992684       0.21547071      -0.03824089 </v>
   <v>      -0.03212039       0.00065484       0.00097583 </v>
   <v>      -0.01535869       0.02815191       0.00109510 </v>
   <v>       0.01502832      -0.00886431      -0.02737368 </v>
   <v>      -0.04957817       0.03057910       0.21644818 </v>
   <v>       0.04967063      -0.03042868      -0.21644818 </v>
   <v>      -0.01469504       0.00940650       0.02737368 </v>
   <v>       0.01508780      -0.02836382      -0.00097583 </v>
   <v>       0.03205362      -0.00099222      -0.00109510 </v>
   <v>       0.05007658      -0.21554008       0.03816446 </v>
   <v>       0.21479811       0.05274550       0.03824089 </v>
   <v>       0.15992882      -0.09842690      -0.07225100 </v>
   <v>      -0.16003535       0.09825359       0.07225100 </v>
  </varray>
  <varray name="stress" >
   <v>      31.75273662      -2.61691218      -1.88545373 </v>
   <v>      -2.61691218      29.10408994       1.15897968 </v>
   <v>      -1.88545373       1.15897968      28.38008430 </v>
  </varray>
  <energy>
   <i name="e_fr_energy">   -120.73170254 </i>
   <i name="e_wo_entrp">   -120.73170254 </i>
   <i name="e_0_energy">   -120.73170254 </i>
  </energy>
  <time name="totalsc"> 2086.89 1959.11</time>
 </calculation>
 <calculation>
  <scstep>
   <time name="total">  207.05  193.22</time>
   <energy>
    <i name="alphaZ">    146.61214840 </i>
    <i name="ewald">  -1489.10523536 </i>
    <i name="hartreedc">   -266.01259952 </i>
    <i name="XCdc">    104.72462105 </i>
    <i name="pawpsdc">   5298.58231739 </i>
    <i name="pawaedc">  -5291.92226402 </i>
    <i name="eentropy">     -0.00000000 </i>
    <i name="bandstr">   -114.55275817 </i>
    <i name="atom">   1394.45731649 </i>
    <i name="e_fr_energy">   -120.71488732 </i>
    <i name="e_wo_entrp">   -120.71488732 </i>
    <i name="e_0_energy">   -120.71488732 </i>
   </energy>
  </scstep>
  <scstep>
   <time name="total">  206.86  193.30</time>
   <energy>
    <i name="e_fr_energy">   -120.74124880 </i>
    <i name="e_wo_entrp">   -120.74124880 </i>
    <i name="e_0_energy">   -120.74124880 </i>
   </energy>
  </scstep>
  <scstep>
   <time name="total">  207.04  193.32</time>
   <energy>
    <i name="e_fr_energy">   -120.74417853 </i>
    <i name="e_wo_entrp">   -120.74417853 </i>
    <i name="e_0_energy">   -120.74417853 </i>
   </energy>
  </scstep>
  <scstep>
   <time name="total">  207.53  193.46</time>
   <energy>
    <i name="e_fr_energy">   -120.74464811 </i>
    <i name="e_wo_entrp">   -120.74464811 </i>
    <i name="e_0_energy">   -120.74464811 </i>
   </energy>
  </scstep>
  <scstep>
   <time name="total">  207.43  193.46</time>
   <energy>
    <i name="e_fr_energy">   -120.74474010 </i>
    <i name="e_wo_entrp">   -120.74474010 </i>
    <i name="e_0_energy">   -120.74474010 </i>
   </energy>
  </scstep>
  <scstep>
   <time name="total">  208.19  194.22</time>
   <energy>
    <i name="e_fr_energy">   -120.74476625 </i>
    <i name="e_wo_entrp">   -120.74476625 </i>
    <i name="e_0_energy">   -120.74476625 </i>
   </energy>
  </scstep>
  <scstep>
   <time name="total">  307.03  287.78</time>
   <energy>
    <i name="alphaZ">    146.61214840 </i>
    <i name="ewald">  -1489.10523536 </i>
    <i name="hartreedc">   -266.81899582 </i>
    <i name="XCdc">    104.76439027 </i>
    <i name="pawpsdc">   5184.48133157 </i>
    <i name="pawaedc">  -5177.84776105 </i>
    <i name="eentropy">     -0.00000000 </i>
    <i name="bandstr">   -113.81857132 </i>
    <i name="atom">   1394.45731649 </i>
    <i name="e_fr_energy">   -120.74477127 </i>
    <i name="e_wo_entrp">   -120.74477127 </i>
    <i name="e_0_energy">   -120.74477127 </i>
   </energy>
  </scstep>
  <structure>
   <crystal>
    <varray name="basis" >
     <v>       5.21117754      -0.00023720      -0.00016816 </v>
     <v>      -2.35324794       4.64958014       0.00016816 </v>
     <v>      -2.35324473       1.44652865       4.41883128 </v>
    </varray>
    <i name="volume">    107.06234178 </i>
    <varray name="rec_basis" >
     <v>       0.19190190       0.09712294       0.07040346 </v>
     <v>       0.00000752       0.21507953      -0.07040346 </v>
     <v>       0.00000730      -0.00000449       0.22630954 </v>
    </varray>
   </crystal>
   <varray name="positions" >
    <v>       0.50000000       0.50000000       0.50000000 </v>
    <v>       0.66977431       0.00352197       0.00352167 </v>
    <v>       0.99647841       0.33022648       0.00352211 </v>
    <v>       0.32391701       0.19723618       0.19723398 </v>
    <v>       0.80276572       0.67608457       0.19723378 </v>
    <v>       0.19723492       0.80276865       0.32391811 </v>
    <v>       0.99647750       0.00352257       0.33022647 </v>
    <v>       0.00352257       0.99647750       0.66977353 </v>
    <v>       0.80276865       0.19723492       0.67608189 </v>
    <v>       0.19723618       0.32391701       0.80276602 </v>
    <v>       0.67608457       0.80276572       0.80276622 </v>
    <v>       0.00352197       0.66977431       0.99647833 </v>
    <v>       0.33022648       0.99647841       0.99647789 </v>
    <v>       0.62337891       0.37662279       0.37662499 </v>
    <v>       0.37662279       0.62337891       0.62337501 </v>
   </varray>
  </structure>
  <varray name="forces" >
   <v>      -0.00000189      -0.00000307      -0.00000000 </v>
   <v>      -0.05728097      -0.04455768      -0.03232804 </v>
   <v>       0.01396005       0.07126623      -0.03233006 </v>
   <v>      -0.00387597       0.01844403       0.01351635 </v>
   <v>      -0.01823618      -0.00486426       0.01356579 </v>
   <v>       0.01832617      -0.01141290       0.00853237 </v>
   <v>       0.01405022      -0.00857298       0.07765718 </v>
   <v>      -0.01399345       0.00866533      -0.07765718 </v>
   <v>      -0.01845812       0.01119823      -0.00853237 </v>
   <v>       0.01820688       0.00486980      -0.01351635 </v>
   <v>       0.00389415      -0.01846767      -0.01356579 </v>
   <v>      -0.01389226      -0.07122852       0.03232804 </v>
   <v>       0.05728402       0.04463519       0.03233006 </v>
   <v>       0.03353859      -0.02059655      -0.01528431 </v>
   <v>      -0.03352122       0.02062481       0.01528431 </v>
  </varray>
  <varray name="stress" >
   <v>       0.17194531      -1.58401411      -1.13929783 </v>
   <v>      -1.58401411      -1.43127767       0.70032110 </v>
   <v>      -1.13929784       0.70032111      -1.87798555 </v>
  </varray>
  <energy>
   <i name="e_fr_energy">   -120.74477127 </i>
   <i name="e_wo_entrp">   -120.74477127 </i>
   <i name="e_0_energy">   -120.74477127 </i>
  </energy>
  <time name="totalsc"> 1863.19 1751.25</time>
 </calculation>
 <calculation>
  <scstep>
   <time name="total">  207.27  193.90</time>
   <energy>
    <i name="alphaZ">    146.81200918 </i>
    <i name="ewald">  -1490.26633399 </i>
    <i name="hartreedc">   -266.94618036 </i>
    <i name="XCdc">    104.80850136 </i>
    <i name="pawpsdc">   5181.35348377 </i>
    <i name="pawaedc">  -5174.72561248 </i>
    <i name="eentropy">     -0.00000000 </i>
    <i name="bandstr">   -112.80225716 </i>
    <i name="atom">   1394.45731649 </i>
    <i name="e_fr_energy">   -120.73248198 </i>
    <i name="e_wo_entrp">   -120.73248198 </i>
    <i name="e_0_energy">   -120.73248198 </i>
   </energy>
  </scstep>
  <scstep>
   <time name="total">  206.00  192.91</time>
   <energy>
    <i name="e_fr_energy">   -120.74325898 </i>
    <i name="e_wo_entrp">   -120.74325898 </i>
    <i name="e_0_energy">   -120.74325898 </i>
   </energy>
  </scstep>
  <scstep>
   <time name="total">  207.37  194.04</time>
   <energy>
    <i name="e_fr_energy">   -120.74490143 </i>
    <i name="e_wo_entrp">   -120.74490143 </i>
    <i name="e_0_energy">   -120.74490143 </i>
   </energy>
  </scstep>
  <scstep>
   <time name="total">  207.39  193.43</time>
   <energy>
    <i name="e_fr_energy">   -120.74502894 </i>
    <i name="e_wo_entrp">   -120.74502894 </i>
    <i name="e_0_energy">   -120.74502894 </i>
   </energy>
  </scstep>
  <scstep>
   <time name="total">  207.16  193.29</time>
   <energy>
    <i name="e_fr_energy">   -120.74505603 </i>
    <i name="e_wo_entrp">   -120.74505603 </i>
    <i name="e_0_energy">   -120.74505603 </i>
   </energy>
  </scstep>
  <scstep>
   <time name="total">  305.79  288.32</time>
   <energy>
    <i name="alphaZ">    146.81200918 </i>
    <i name="ewald">  -1490.26633399 </i>
    <i name="hartreedc">   -266.46409530 </i>
    <i name="XCdc">    104.79107842 </i>
    <i name="pawpsdc">   5191.14074742 </i>
    <i name="pawaedc">  -5184.50959032 </i>
    <i name="eentropy">     -0.00000000 </i>
    <i name="bandstr">   -113.26158865 </i>
    <i name="atom">   1394.45731649 </i>
    <i name="e_fr_energy">   -120.74506538 </i>
    <i name="e_wo_entrp">   -120.74506538 </i>
    <i name="e_0_energy">   -120.74506538 </i>
   </energy>
  </scstep>
  <structure>
   <crystal>
    <varray name="basis" >
     <v>       5.21006507      -0.00186659      -0.00133996 </v>
     <v>      -2.35419944       4.64785181       0.00133996 </v>
     <v>      -2.35418832       1.44710867       4.41682843 </v>
    </varray>
    <i name="volume">    106.91659374 </i>
    <varray name="rec_basis" >
     <v>       0.19198914       0.09722476       0.07047677 </v>
     <v>       0.00005897       0.21520335      -0.07047677 </v>
     <v>       0.00005823      -0.00003579       0.22644956 </v>
    </varray>
   </crystal>
   <varray name="positions" >
    <v>       0.49999998       0.49999998       0.50000000 </v>
    <v>       0.66902954       0.00319257       0.00319188 </v>
    <v>       0.99680857       0.33097166       0.00319232 </v>
    <v>       0.32402231       0.19737842       0.19737801 </v>
    <v>       0.80262351       0.67597925       0.19737829 </v>
    <v>       0.19737682       0.80262437       0.32402049 </v>
    <v>       0.99680790       0.00319306       0.33097035 </v>
    <v>       0.00319306       0.99680790       0.66902965 </v>
    <v>       0.80262437       0.19737682       0.67597951 </v>
    <v>       0.19737842       0.32402231       0.80262199 </v>
    <v>       0.67597925       0.80262351       0.80262171 </v>
    <v>       0.00319257       0.66902954       0.99680812 </v>
    <v>       0.33097166       0.99680857       0.99680768 </v>
    <v>       0.62350898       0.37649308       0.37649079 </v>
    <v>       0.37649308       0.62350898       0.62350921 </v>
   </varray>
  </structure>
  <varray name="forces" >
   <v>      -0.00000627      -0.00001020       0.00000000 </v>
   <v>       0.06282362       0.01692922       0.01231191 </v>
   <v>       0.01329568      -0.06369976       0.01228316 </v>
   <v>      -0.00282670      -0.01306608      -0.00960669 </v>
   <v>       0.01034138       0.00841621      -0.00964182 </v>
   <v>      -0.01013028       0.00627505      -0.01064370 </v>
   <v>       0.01326422      -0.00812540      -0.06426325 </v>
   <v>      -0.01323919       0.00816612       0.06426325 </v>
   <v>       0.01017312      -0.00620535       0.01064370 </v>
   <v>      -0.01038188      -0.00842194       0.00960669 </v>
   <v>       0.00283988       0.01302735       0.00964182 </v>
   <v>      -0.01326201       0.06369871      -0.01231191 </v>
   <v>      -0.06283976      -0.01689965      -0.01228316 </v>
   <v>      -0.03165502       0.01940014       0.01453267 </v>
   <v>       0.03160322      -0.01948441      -0.01453267 </v>
  </varray>
  <varray name="stress" >
   <v>       1.42400336       0.08794249       0.04887385 </v>
   <v>       0.08794249       1.51301230      -0.03004253 </v>
   <v>       0.04887384      -0.03004253       1.52161159 </v>
  </varray>
  <energy>
   <i name="e_fr_energy">   -120.74506538 </i>
   <i name="e_wo_entrp">   -120.74506538 </i>
   <i name="e_0_energy">   -120.74506538 </i>
  </energy>
  <time name="totalsc"> 1653.78 1559.37</time>
 </calculation>
 <calculation>
  <scstep>
   <time name="total">  209.32  194.55</time>
   <energy>
    <i name="alphaZ">    146.72779665 </i>
    <i name="ewald">  -1489.77882372 </i>
    <i name="hartreedc">   -266.41458119 </i>
    <i name="XCdc">    104.77271510 </i>
    <i name="pawpsdc">   5193.21594876 </i>
    <i name="pawaedc">  -5186.58225520 </i>
    <i name="eentropy">     -0.00000000 </i>
    <i name="bandstr">   -113.67743339 </i>
    <i name="atom">   1394.45731649 </i>
    <i name="e_fr_energy">   -120.74317212 </i>
    <i name="e_wo_entrp">   -120.74317212 </i>
    <i name="e_0_energy">   -120.74317212 </i>
   </energy>
  </scstep>
  <scstep>
   <time name="total">  207.69  194.07</time>
   <energy>
    <i name="e_fr_energy">   -120.74507891 </i>
    <i name="e_wo_entrp">   -120.74507891 </i>
    <i name="e_0_energy">   -120.74507891 </i>
   </energy>
  </scstep>
  <scstep>
   <time name="total">  206.78  193.37</time>
   <energy>
    <i name="e_fr_energy">   -120.74536835 </i>
    <i name="e_wo_entrp">   -120.74536835 </i>
    <i name="e_0_energy">   -120.74536835 </i>
   </energy>
  </scstep>
  <scstep>
   <time name="total">  206.11  193.01</time>
   <energy>
    <i name="e_fr_energy">   -120.74539119 </i>
    <i name="e_wo_entrp">   -120.74539119 </i>
    <i name="e_0_energy">   -120.74539119 </i>
   </energy>
  </scstep>
  <scstep>
   <time name="total">  309.94  289.97</time>
   <energy>
    <i name="alphaZ">    146.72779665 </i>
    <i name="ewald">  -1489.77882372 </i>
    <i name="hartreedc">   -266.61926281 </i>
    <i name="XCdc">    104.78008819 </i>
    <i name="pawpsdc">   5188.38114800 </i>
    <i name="pawaedc">  -5181.74900033 </i>
    <i name="eentropy">     -0.00000000 </i>
    <i name="bandstr">   -113.48980961 </i>
    <i name="atom">   1394.45731649 </i>
    <i name="e_fr_energy">   -120.74539626 </i>
    <i name="e_wo_entrp">   -120.74539626 </i>
    <i name="e_0_energy">   -120.74539626 </i>
   </energy>
  </scstep>
  <structure>
   <crystal>
    <varray name="basis" >
     <v>       5.21053353      -0.00118046      -0.00084652 </v>
     <v>      -2.35379877       4.64857961       0.00084652 </v>
     <v>      -2.35379098       1.44686443       4.41767182 </v>
    </varray>
    <i name="volume">    106.97795714 </i>
    <varray name="rec_basis" >
     <v>       0.19195239       0.09718187       0.07044589 </v>
     <v>       0.00003730       0.21515119      -0.07044589 </v>
     <v>       0.00003677      -0.00002261       0.22639058 </v>
    </varray>
   </crystal>
   <varray name="positions" >
    <v>       0.49999999       0.49999999       0.50000000 </v>
    <v>       0.66934338       0.00333139       0.00333086 </v>
    <v>       0.99666943       0.33065765       0.00333130 </v>
    <v>       0.32397792       0.19731850       0.19731733 </v>
    <v>       0.80268342       0.67602365       0.19731741 </v>
    <v>       0.19731704       0.80268515       0.32397733 </v>
    <v>       0.99666866       0.00333193       0.33065689 </v>
    <v>       0.00333193       0.99666866       0.66934311 </v>
    <v>       0.80268515       0.19731704       0.67602267 </v>
    <v>       0.19731850       0.32397792       0.80268267 </v>
    <v>       0.67602365       0.80268342       0.80268259 </v>
    <v>       0.00333139       0.66934338       0.99666914 </v>
    <v>       0.33065765       0.99666943       0.99666870 </v>
    <v>       0.62345421       0.37654770       0.37654730 </v>
    <v>       0.37654770       0.62345421       0.62345270 </v>
   </varray>
  </structure>
  <varray name="forces" >
   <v>      -0.00000341      -0.00000555      -0.00000000 </v>
   <v>       0.01199797      -0.00875628      -0.00633850 </v>
   <v>       0.01327774      -0.00673666      -0.00635759 </v>
   <v>      -0.00319719       0.00034156       0.00023181 </v>
   <v>      -0.00178510       0.00269772       0.00023352 </v>
   <v>       0.00194692      -0.00122990      -0.00242001 </v>
   <v>       0.01329658      -0.00813210      -0.00442118 </v>
   <v>      -0.01325977       0.00819197       0.00442118 </v>
   <v>      -0.00197649       0.00118180       0.00242001 </v>
   <v>       0.00174841      -0.00269847      -0.00023181 </v>
   <v>       0.00321308      -0.00037464      -0.00023352 </v>
   <v>      -0.01323034       0.00675144       0.00633850 </v>
   <v>      -0.01200619       0.00880526       0.00635759 </v>
   <v>      -0.00848148       0.00518862       0.00391648 </v>
   <v>       0.00845925      -0.00522477      -0.00391648 </v>
  </varray>
  <varray name="stress" >
   <v>       0.87434207      -0.60230755      -0.44157439 </v>
   <v>      -0.60230755       0.26473052       0.27143374 </v>
   <v>      -0.44157439       0.27143374       0.08592733 </v>
  </varray>
  <energy>
   <i name="e_fr_energy">   -120.74539626 </i>
   <i name="e_wo_entrp">   -120.74539626 </i>
   <i name="e_0_energy">   -120.74539626 </i>
  </energy>
  <time name="totalsc"> 1452.15 1368.26</time>
 </calculation>
 <calculation>
  <scstep>
   <time name="total">  208.02  193.52</time>
   <energy>
    <i name="alphaZ">    146.70650736 </i>
    <i name="ewald">  -1489.51874320 </i>
    <i name="hartreedc">   -266.68917340 </i>
    <i name="XCdc">    104.77637755 </i>
    <i name="pawpsdc">   5189.43319381 </i>
    <i name="pawaedc">  -5182.80045329 </i>
    <i name="eentropy">     -0.00000000 </i>
    <i name="bandstr">   -113.65142076 </i>
    <i name="atom">   1394.45731649 </i>
    <i name="e_fr_energy">   -120.74500939 </i>
    <i name="e_wo_entrp">   -120.74500939 </i>
    <i name="e_0_energy">   -120.74500939 </i>
   </energy>
  </scstep>
  <scstep>
   <time name="total">  207.40  194.13</time>
   <energy>
    <i name="e_fr_energy">   -120.74539890 </i>
    <i name="e_wo_entrp">   -120.74539890 </i>
    <i name="e_0_energy">   -120.74539890 </i>
   </energy>
  </scstep>
  <scstep>
   <time name="total">  206.75  193.60</time>
   <energy>
    <i name="e_fr_energy">   -120.74545054 </i>
    <i name="e_wo_entrp">   -120.74545054 </i>
    <i name="e_0_energy">   -120.74545054 </i>
   </energy>
  </scstep>
  <scstep>
   <time name="total">  308.50  289.03</time>
   <energy>
    <i name="alphaZ">    146.70650736 </i>
    <i name="ewald">  -1489.51874320 </i>
    <i name="hartreedc">   -266.78869664 </i>
    <i name="XCdc">    104.77854410 </i>
    <i name="pawpsdc">   5187.99687865 </i>
    <i name="pawaedc">  -5181.36459879 </i>
    <i name="eentropy">     -0.00000000 </i>
    <i name="bandstr">   -113.55624986 </i>
    <i name="atom">   1394.45731649 </i>
    <i name="e_fr_energy">   -120.74545557 </i>
    <i name="e_wo_entrp">   -120.74545557 </i>
    <i name="e_0_energy">   -120.74545557 </i>
   </energy>
  </scstep>
  <structure>
   <crystal>
    <varray name="basis" >
     <v>       5.21128944      -0.00183198      -0.00132293 </v>
     <v>      -2.35472141       4.64895989       0.00132293 </v>
     <v>      -2.35471712       1.44743372       4.41788713 </v>
    </varray>
    <i name="volume">    106.99348123 </i>
    <varray name="rec_basis" >
     <v>       0.19194314       0.09720011       0.07045927 </v>
     <v>       0.00005775       0.21515118      -0.07045927 </v>
     <v>       0.00005746      -0.00003532       0.22639474 </v>
    </varray>
   </crystal>
   <varray name="positions" >
    <v>       0.49999994       0.49999994       0.50000000 </v>
    <v>       0.66934316       0.00325553       0.00325509 </v>
    <v>       0.99674570       0.33065808       0.00325535 </v>
    <v>       0.32396096       0.19732857       0.19732731 </v>
    <v>       0.80267307       0.67604060       0.19732743 </v>
    <v>       0.19732817       0.80267348       0.32396087 </v>
    <v>       0.99674512       0.00325603       0.33065728 </v>
    <v>       0.00325603       0.99674512       0.66934272 </v>
    <v>       0.80267348       0.19732817       0.67603913 </v>
    <v>       0.19732857       0.32396096       0.80267269 </v>
    <v>       0.67604060       0.80267307       0.80267257 </v>
    <v>       0.00325553       0.66934316       0.99674491 </v>
    <v>       0.33065808       0.99674570       0.99674465 </v>
    <v>       0.62342718       0.37657444       0.37657565 </v>
    <v>       0.37657444       0.62342718       0.62342435 </v>
   </varray>
  </structure>
  <varray name="forces" >
   <v>      -0.00000589      -0.00000958      -0.00000000 </v>
   <v>       0.00144963      -0.00113480      -0.00083183 </v>
   <v>       0.00168793      -0.00077292      -0.00084491 </v>
   <v>       0.00171796       0.00110791       0.00087853 </v>
   <v>      -0.00023181      -0.00204222       0.00087232 </v>
   <v>       0.00019906      -0.00012692       0.00202810 </v>
   <v>       0.00173581      -0.00104856      -0.00046615 </v>
   <v>      -0.00171936       0.00107532       0.00046615 </v>
   <v>      -0.00020313       0.00012030      -0.00202810 </v>
   <v>       0.00021282       0.00203311      -0.00087853 </v>
   <v>      -0.00171750      -0.00112897      -0.00087232 </v>
   <v>      -0.00166709       0.00078103       0.00083183 </v>
   <v>      -0.00145180       0.00115706       0.00084491 </v>
   <v>      -0.00650674       0.00399226       0.00269038 </v>
   <v>       0.00650013      -0.00400301      -0.00269038 </v>
  </varray>
  <varray name="stress" >
   <v>       0.36067676      -0.22175509      -0.15831964 </v>
   <v>      -0.22175509       0.13623251       0.09731835 </v>
   <v>      -0.15831963       0.09731835       0.07866903 </v>
  </varray>
  <energy>
   <i name="e_fr_energy">   -120.74545557 </i>
   <i name="e_wo_entrp">   -120.74545557 </i>
   <i name="e_0_energy">   -120.74545557 </i>
  </energy>
  <time name="totalsc"> 1138.63 1075.32</time>
  <eigenvalues>
   <array>
    <dimension dim="1">band</dimension>
    <dimension dim="2">kpoint</dimension>
    <dimension dim="3">spin</dimension>
    <field>eigene</field>
    <field>occ</field>
    <set>
     <set comment="spin 1">
      <set comment="kpoint 1">
       <r>  -14.6106    1.0000 </r>
       <r>  -13.4474    1.0000 </r>
       <r>  -10.3033    1.0000 </r>
       <r>   -6.5274    1.0000 </r>
       <r>   -6.5274    1.0000 </r>
       <r>   -5.8495    1.0000 </r>
       <r>   -4.9943    1.0000 </r>
       <r>   -4.9943    1.0000 </r>
       <r>   -3.1380    1.0000 </r>
       <r>   -2.7069    1.0000 </r>
       <r>   -2.7069    1.0000 </r>
       <r>   -2.0477    1.0000 </r>
       <r>   -2.0477    1.0000 </r>
       <r>   -1.7413    1.0000 </r>
       <r>   -1.0705    1.0000 </r>
       <r>    1.2546    1.0000 </r>
       <r>    1.2546    1.0000 </r>
       <r>    2.2971    1.0000 </r>
       <r>    2.7150    1.0000 </r>
       <r>    2.7439    1.0000 </r>
       <r>    2.7440    1.0000 </r>
       <r>    3.2798    1.0000 </r>
       <r>    4.4408    1.0000 </r>
       <r>    4.4408    1.0000 </r>
       <r>   11.7359    0.0000 </r>
       <r>   11.7785    0.0000 </r>
       <r>   11.7785    0.0000 </r>
       <r>   12.6345    0.0000 </r>
       <r>   12.6346    0.0000 </r>
       <r>   13.6017    0.0000 </r>
       <r>   13.7644    0.0000 </r>
       <r>   14.6763    0.0000 </r>
      </set>
      <set comment="kpoint 2">
       <r>  -14.5622    1.0000 </r>
       <r>  -13.4783    1.0000 </r>
       <r>  -10.3943    1.0000 </r>
       <r>   -6.6308    1.0000 </r>
       <r>   -6.6014    1.0000 </r>
       <r>   -5.9683    1.0000 </r>
       <r>   -4.7749    1.0000 </r>
       <r>   -4.6136    1.0000 </r>
       <r>   -3.1469    1.0000 </r>
       <r>   -3.0028    1.0000 </r>
       <r>   -2.8302    1.0000 </r>
       <r>   -2.3358    1.0000 </r>
       <r>   -1.7637    1.0000 </r>
       <r>   -1.2609    1.0000 </r>
       <r>   -0.8702    1.0000 </r>
       <r>    1.0317    1.0000 </r>
       <r>    1.3929    1.0000 </r>
       <r>    2.3456    1.0000 </r>
       <r>    2.4131    1.0000 </r>
       <r>    2.5359    1.0000 </r>
       <r>    2.8514    1.0000 </r>
       <r>    3.3336    1.0000 </r>
       <r>    4.2792    1.0000 </r>
       <r>    4.4717    1.0000 </r>
       <r>   11.5512    0.0000 </r>
       <r>   11.5925    0.0000 </r>
       <r>   11.9181    0.0000 </r>
       <r>   12.2980    0.0000 </r>
       <r>   12.6924    0.0000 </r>
       <r>   13.1796    0.0000 </r>
       <r>   13.4819    0.0000 </r>
       <r>   13.8487    0.0000 </r>
      </set>
      <set comment="kpoint 3">
       <r>  -14.5622    1.0000 </r>
       <r>  -13.4783    1.0000 </r>
       <r>  -10.3943    1.0000 </r>
       <r>   -6.6308    1.0000 </r>
       <r>   -6.6014    1.0000 </r>
       <r>   -5.9683    1.0000 </r>
       <r>   -4.7749    1.0000 </r>
       <r>   -4.6136    1.0000 </r>
       <r>   -3.1469    1.0000 </r>
       <r>   -3.0028    1.0000 </r>
       <r>   -2.8303    1.0000 </r>
       <r>   -2.3358    1.0000 </r>
       <r>   -1.7637    1.0000 </r>
       <r>   -1.2609    1.0000 </r>
       <r>   -0.8702    1.0000 </r>
       <r>    1.0317    1.0000 </r>
       <r>    1.3929    1.0000 </r>
       <r>    2.3456    1.0000 </r>
       <r>    2.4131    1.0000 </r>
       <r>    2.5359    1.0000 </r>
       <r>    2.8515    1.0000 </r>
       <r>    3.3336    1.0000 </r>
       <r>    4.2792    1.0000 </r>
       <r>    4.4717    1.0000 </r>
       <r>   11.5512    0.0000 </r>
       <r>   11.5925    0.0000 </r>
       <r>   11.9181    0.0000 </r>
       <r>   12.2978    0.0000 </r>
       <r>   12.6923    0.0000 </r>
       <r>   13.1796    0.0000 </r>
       <r>   13.4826    0.0000 </r>
       <r>   13.8493    0.0000 </r>
      </set>
      <set comment="kpoint 4">
       <r>  -14.4276    1.0000 </r>
       <r>  -13.5664    1.0000 </r>
       <r>  -10.6200    1.0000 </r>
       <r>   -6.8155    1.0000 </r>
       <r>   -6.6231    1.0000 </r>
       <r>   -6.1745    1.0000 </r>
       <r>   -4.3269    1.0000 </r>
       <r>   -3.9768    1.0000 </r>
       <r>   -3.3260    1.0000 </r>
       <r>   -3.2943    1.0000 </r>
       <r>   -2.9426    1.0000 </r>
       <r>   -2.1538    1.0000 </r>
       <r>   -1.4987    1.0000 </r>
       <r>   -1.2372    1.0000 </r>
       <r>   -0.2576    1.0000 </r>
       <r>    1.2797    1.0000 </r>
       <r>    1.6376    1.0000 </r>
       <r>    1.6688    1.0000 </r>
       <r>    1.7137    1.0000 </r>
       <r>    2.4076    1.0000 </r>
       <r>    3.3063    1.0000 </r>
       <r>    3.3470    1.0000 </r>
       <r>    3.8181    1.0000 </r>
       <r>    4.5240    1.0000 </r>
       <r>   10.8779    0.0000 </r>
       <r>   11.0944    0.0000 </r>
       <r>   11.2794    0.0000 </r>
       <r>   11.8103    0.0000 </r>
       <r>   13.0700    0.0000 </r>
       <r>   13.1373    0.0000 </r>
       <r>   13.3486    0.0000 </r>
       <r>   13.8370    0.0000 </r>
      </set>
      <set comment="kpoint 5">
       <r>  -14.4276    1.0000 </r>
       <r>  -13.5664    1.0000 </r>
       <r>  -10.6200    1.0000 </r>
       <r>   -6.8155    1.0000 </r>
       <r>   -6.6230    1.0000 </r>
       <r>   -6.1745    1.0000 </r>
       <r>   -4.3269    1.0000 </r>
       <r>   -3.9768    1.0000 </r>
       <r>   -3.3260    1.0000 </r>
       <r>   -3.2943    1.0000 </r>
       <r>   -2.9426    1.0000 </r>
       <r>   -2.1538    1.0000 </r>
       <r>   -1.4986    1.0000 </r>
       <r>   -1.2372    1.0000 </r>
       <r>   -0.2576    1.0000 </r>
       <r>    1.2797    1.0000 </r>
       <r>    1.6376    1.0000 </r>
       <r>    1.6687    1.0000 </r>
       <r>    1.7137    1.0000 </r>
       <r>    2.4076    1.0000 </r>
       <r>    3.3063    1.0000 </r>
       <r>    3.3471    1.0000 </r>
       <r>    3.8181    1.0000 </r>
       <r>    4.5240    1.0000 </r>
       <r>   10.8778    0.0000 </r>
       <r>   11.0945    0.0000 </r>
       <r>   11.2795    0.0000 </r>
       <r>   11.8103    0.0000 </r>
       <r>   13.0700    0.0000 </r>
       <r>   13.1373    0.0000 </r>
       <r>   13.3484    0.0000 </r>
       <r>   13.8368    0.0000 </r>
      </set>
      <set comment="kpoint 6">
       <r>  -14.2455    1.0000 </r>
       <r>  -13.6960    1.0000 </r>
       <r>  -10.8504    1.0000 </r>
       <r>   -6.9518    1.0000 </r>
       <r>   -6.6221    1.0000 </r>
       <r>   -6.1915    1.0000 </r>
       <r>   -4.2023    1.0000 </r>
       <r>   -4.1449    1.0000 </r>
       <r>   -3.0822    1.0000 </r>
       <r>   -3.0174    1.0000 </r>
       <r>   -2.4424    1.0000 </r>
       <r>   -1.9441    1.0000 </r>
       <r>   -1.6438    1.0000 </r>
       <r>   -1.5223    1.0000 </r>
       <r>    0.5022    1.0000 </r>
       <r>    0.8419    1.0000 </r>
       <r>    1.1175    1.0000 </r>
       <r>    1.6228    1.0000 </r>
       <r>    1.9294    1.0000 </r>
       <r>    2.5231    1.0000 </r>
       <r>    3.1244    1.0000 </r>
       <r>    3.5009    1.0000 </r>
       <r>    3.5780    1.0000 </r>
       <r>    4.5496    1.0000 </r>
       <r>   10.0298    0.0000 </r>
       <r>   10.2095    0.0000 </r>
       <r>   10.5609    0.0000 </r>
       <r>   11.3779    0.0000 </r>
       <r>   13.4130    0.0000 </r>
       <r>   13.5365    0.0000 </r>
       <r>   13.6619    0.0000 </r>
       <r>   14.0729    0.0000 </r>
      </set>
      <set comment="kpoint 7">
       <r>  -14.2455    1.0000 </r>
       <r>  -13.6960    1.0000 </r>
       <r>  -10.8504    1.0000 </r>
       <r>   -6.9518    1.0000 </r>
       <r>   -6.6221    1.0000 </r>
       <r>   -6.1915    1.0000 </r>
       <r>   -4.2023    1.0000 </r>
       <r>   -4.1449    1.0000 </r>
       <r>   -3.0823    1.0000 </r>
       <r>   -3.0174    1.0000 </r>
       <r>   -2.4425    1.0000 </r>
       <r>   -1.9442    1.0000 </r>
       <r>   -1.6437    1.0000 </r>
       <r>   -1.5223    1.0000 </r>
       <r>    0.5022    1.0000 </r>
       <r>    0.8419    1.0000 </r>
       <r>    1.1175    1.0000 </r>
       <r>    1.6228    1.0000 </r>
       <r>    1.9294    1.0000 </r>
       <r>    2.5231    1.0000 </r>
       <r>    3.1244    1.0000 </r>
       <r>    3.5009    1.0000 </r>
       <r>    3.5780    1.0000 </r>
       <r>    4.5495    1.0000 </r>
       <r>   10.0298    0.0000 </r>
       <r>   10.2095    0.0000 </r>
       <r>   10.5609    0.0000 </r>
       <r>   11.3779    0.0000 </r>
       <r>   13.4130    0.0000 </r>
       <r>   13.5365    0.0000 </r>
       <r>   13.6638    0.0000 </r>
       <r>   14.0737    0.0000 </r>
      </set>
      <set comment="kpoint 8">
       <r>  -14.1298    1.0000 </r>
       <r>  -13.7880    1.0000 </r>
       <r>  -10.9466    1.0000 </r>
       <r>   -6.9997    1.0000 </r>
       <r>   -6.6565    1.0000 </r>
       <r>   -6.1013    1.0000 </r>
       <r>   -4.4092    1.0000 </r>
       <r>   -4.1691    1.0000 </r>
       <r>   -2.9817    1.0000 </r>
       <r>   -2.4771    1.0000 </r>
       <r>   -2.3684    1.0000 </r>
       <r>   -2.0772    1.0000 </r>
       <r>   -1.5856    1.0000 </r>
       <r>   -1.3464    1.0000 </r>
       <r>   -0.1784    1.0000 </r>
       <r>    0.9676    1.0000 </r>
       <r>    1.2049    1.0000 </r>
       <r>    1.9351    1.0000 </r>
       <r>    1.9575    1.0000 </r>
       <r>    2.4196    1.0000 </r>
       <r>    2.8268    1.0000 </r>
       <r>    3.6299    1.0000 </r>
       <r>    3.6640    1.0000 </r>
       <r>    4.5455    1.0000 </r>
       <r>    9.6593    0.0000 </r>
       <r>    9.7439    0.0000 </r>
       <r>   10.3122    0.0000 </r>
       <r>   11.1880    0.0000 </r>
       <r>   13.5700    0.0000 </r>
       <r>   13.7146    0.0000 </r>
       <r>   13.8754    0.0000 </r>
       <r>   14.1678    0.0000 </r>
      </set>
      <set comment="kpoint 9">
       <r>  -14.1298    1.0000 </r>
       <r>  -13.7880    1.0000 </r>
       <r>  -10.9466    1.0000 </r>
       <r>   -6.9997    1.0000 </r>
       <r>   -6.6565    1.0000 </r>
       <r>   -6.1013    1.0000 </r>
       <r>   -4.4092    1.0000 </r>
       <r>   -4.1690    1.0000 </r>
       <r>   -2.9818    1.0000 </r>
       <r>   -2.4771    1.0000 </r>
       <r>   -2.3685    1.0000 </r>
       <r>   -2.0772    1.0000 </r>
       <r>   -1.5856    1.0000 </r>
       <r>   -1.3464    1.0000 </r>
       <r>   -0.1784    1.0000 </r>
       <r>    0.9676    1.0000 </r>
       <r>    1.2049    1.0000 </r>
       <r>    1.9351    1.0000 </r>
       <r>    1.9575    1.0000 </r>
       <r>    2.4196    1.0000 </r>
       <r>    2.8268    1.0000 </r>
       <r>    3.6299    1.0000 </r>
       <r>    3.6640    1.0000 </r>
       <r>    4.5455    1.0000 </r>
       <r>    9.6593    0.0000 </r>
       <r>    9.7440    0.0000 </r>
       <r>   10.3122    0.0000 </r>
       <r>   11.1880    0.0000 </r>
       <r>   13.5700    0.0000 </r>
       <r>   13.7145    0.0000 </r>
       <r>   13.8753    0.0000 </r>
       <r>   14.1681    0.0000 </r>
      </set>
      <set comment="kpoint 10">
       <r>  -14.4772    1.0000 </r>
       <r>  -13.5363    1.0000 </r>
       <r>  -10.5504    1.0000 </r>
       <r>   -6.8468    1.0000 </r>
       <r>   -6.5589    1.0000 </r>
       <r>   -6.0670    1.0000 </r>
       <r>   -4.2293    1.0000 </r>
       <r>   -4.1917    1.0000 </r>
       <r>   -3.4353    1.0000 </r>
       <r>   -3.1753    1.0000 </r>
       <r>   -2.8862    1.0000 </r>
       <r>   -2.1986    1.0000 </r>
       <r>   -1.8257    1.0000 </r>
       <r>   -1.0214    1.0000 </r>
       <r>   -0.7212    1.0000 </r>
       <r>    1.2836    1.0000 </r>
       <r>    1.5046    1.0000 </r>
       <r>    1.7989    1.0000 </r>
       <r>    1.9341    1.0000 </r>
       <r>    2.4328    1.0000 </r>
       <r>    2.9819    1.0000 </r>
       <r>    3.4519    1.0000 </r>
       <r>    4.3078    1.0000 </r>
       <r>    4.3879    1.0000 </r>
[...]
       <r>   -0.1840    1.0000 </r>
       <r>    0.3892    1.0000 </r>
       <r>    1.4681    1.0000 </r>
       <r>    1.4748    1.0000 </r>
       <r>    1.6927    1.0000 </r>
       <r>    1.8430    1.0000 </r>
       <r>    1.8479    1.0000 </r>
       <r>    3.5428    1.0000 </r>
       <r>    3.6637    1.0000 </r>
       <r>    3.9483    1.0000 </r>
       <r>    4.8303    1.0000 </r>
       <r>    9.1769    0.0000 </r>
       <r>    9.4398    0.0000 </r>
       <r>    9.5823    0.0000 </r>
       <r>   10.8557    0.0000 </r>
       <r>   11.7657    0.0000 </r>
       <r>   12.4597    0.0000 </r>
       <r>   12.4808    0.0000 </r>
       <r>   12.6196    0.0000 </r>
      </set>
      <set comment="kpoint 149">
       <r>  -14.4064    1.0000 </r>
       <r>  -13.5059    1.0000 </r>
       <r>  -10.1410    1.0000 </r>
       <r>   -7.9140    1.0000 </r>
       <r>   -6.9322    1.0000 </r>
       <r>   -6.6675    1.0000 </r>
       <r>   -5.1727    1.0000 </r>
       <r>   -5.1362    1.0000 </r>
       <r>   -2.9498    1.0000 </r>
       <r>   -1.9515    1.0000 </r>
       <r>   -1.6700    1.0000 </r>
       <r>   -1.3930    1.0000 </r>
       <r>   -1.0991    1.0000 </r>
       <r>   -0.1841    1.0000 </r>
       <r>    0.3892    1.0000 </r>
       <r>    1.4681    1.0000 </r>
       <r>    1.4748    1.0000 </r>
       <r>    1.6927    1.0000 </r>
       <r>    1.8429    1.0000 </r>
       <r>    1.8479    1.0000 </r>
       <r>    3.5428    1.0000 </r>
       <r>    3.6637    1.0000 </r>
       <r>    3.9483    1.0000 </r>
       <r>    4.8303    1.0000 </r>
       <r>    9.1769    0.0000 </r>
       <r>    9.4398    0.0000 </r>
       <r>    9.5823    0.0000 </r>
       <r>   10.8557    0.0000 </r>
       <r>   11.7657    0.0000 </r>
       <r>   12.4597    0.0000 </r>
       <r>   12.4808    0.0000 </r>
       <r>   12.6197    0.0000 </r>
      </set>
      <set comment="kpoint 150">
       <r>  -14.4421    1.0000 </r>
       <r>  -13.4767    1.0000 </r>
       <r>  -10.0261    1.0000 </r>
       <r>   -7.9455    1.0000 </r>
       <r>   -6.6651    1.0000 </r>
       <r>   -6.6651    1.0000 </r>
       <r>   -5.5852    1.0000 </r>
       <r>   -5.5852    1.0000 </r>
       <r>   -2.6106    1.0000 </r>
       <r>   -1.5948    1.0000 </r>
       <r>   -1.5947    1.0000 </r>
       <r>   -1.2422    1.0000 </r>
       <r>   -1.2422    1.0000 </r>
       <r>   -0.7802    1.0000 </r>
       <r>    0.5758    1.0000 </r>
       <r>    1.4698    1.0000 </r>
       <r>    1.4698    1.0000 </r>
       <r>    1.5133    1.0000 </r>
       <r>    2.0374    1.0000 </r>
       <r>    2.0375    1.0000 </r>
       <r>    3.6773    1.0000 </r>
       <r>    3.8861    1.0000 </r>
       <r>    3.8861    1.0000 </r>
       <r>    5.0209    1.0000 </r>
       <r>    8.8739    0.0000 </r>
       <r>    9.3684    0.0000 </r>
       <r>    9.3684    0.0000 </r>
       <r>   11.0184    0.0000 </r>
       <r>   11.7403    0.0000 </r>
       <r>   12.3787    0.0000 </r>
       <r>   12.4496    0.0000 </r>
       <r>   12.4496    0.0000 </r>
      </set>
     </set>
    </set>
   </array>
  </eigenvalues>
  <separator name="orbital magnetization" >
   <v name="MAGDIPOLOUT">      0.00000000      0.00000000      0.00000000</v>
  </separator>
  <dos>
   <i name="efermi">      5.17484096 </i>
   <total>
    <array>
     <dimension dim="1">gridpoints</dimension>
     <dimension dim="2">spin</dimension>
     <field>energy</field>
     <field>total</field>
     <field>integrated</field>
     <set>
      <set comment="spin 1">
       <r>   -16.0810     0.0000     0.0000 </r>
       <r>   -15.9732     0.0000     0.0000 </r>
       <r>   -15.8654     0.0000     0.0000 </r>
       <r>   -15.7575     0.0000     0.0000 </r>
       <r>   -15.6497     0.0000     0.0000 </r>
       <r>   -15.5419     0.0000     0.0000 </r>
       <r>   -15.4340     0.0000     0.0000 </r>
       <r>   -15.3262     0.0000     0.0000 </r>
       <r>   -15.2184     0.0000     0.0000 </r>
       <r>   -15.1106     0.0000     0.0000 </r>
       <r>   -15.0027     0.0000     0.0000 </r>
       <r>   -14.8949     0.0000     0.0000 </r>
       <r>   -14.7871     0.0000     0.0000 </r>
       <r>   -14.6792     0.0000     0.0000 </r>
       <r>   -14.5714     0.1304     0.0141 </r>
       <r>   -14.4636     0.9863     0.1649 </r>
       <r>   -14.3558     1.9305     0.4503 </r>
       <r>   -14.2479     2.7207     0.8403 </r>
       <r>   -14.1401     3.1500     1.2850 </r>
       <r>   -14.0323     3.0889     1.8292 </r>
       <r>   -13.9244     0.6521     2.0000 </r>
       <r>   -13.8166     1.8053     2.1947 </r>
       <r>   -13.7088     4.1527     2.9283 </r>
       <r>   -13.6009     3.5273     3.4116 </r>
       <r>   -13.4931     3.1598     3.8642 </r>
       <r>   -13.3853     0.1811     4.0000 </r>
       <r>   -13.2775     0.0000     4.0000 </r>
       <r>   -13.1696     0.0000     4.0000 </r>
       <r>   -13.0618     0.0000     4.0000 </r>
       <r>   -12.9540     0.0000     4.0000 </r>
       <r>   -12.8461     0.0000     4.0000 </r>
       <r>   -12.7383     0.0000     4.0000 </r>
       <r>   -12.6305     0.0000     4.0000 </r>
       <r>   -12.5227     0.0000     4.0000 </r>
       <r>   -12.4148     0.0000     4.0000 </r>
       <r>   -12.3070     0.0000     4.0000 </r>
       <r>   -12.1992     0.0000     4.0000 </r>
       <r>   -12.0913     0.0000     4.0000 </r>
       <r>   -11.9835     0.0000     4.0000 </r>
       <r>   -11.8757     0.0000     4.0000 </r>
       <r>   -11.7678     0.0000     4.0000 </r>
       <r>   -11.6600     0.0000     4.0000 </r>
       <r>   -11.5522     0.0000     4.0000 </r>
       <r>   -11.4444     0.0000     4.0000 </r>
       <r>   -11.3365     0.0000     4.0000 </r>
       <r>   -11.2287     0.0000     4.0000 </r>
       <r>   -11.1209     0.0000     4.0000 </r>
       <r>   -11.0130     0.0000     4.0000 </r>
       <r>   -10.9052     3.2341     4.3487 </r>
       <r>   -10.7974     2.7313     4.7750 </r>
       <r>   -10.6896     2.9825     5.1536 </r>
       <r>   -10.5817     2.1525     5.4508 </r>
       <r>   -10.4739     1.1150     5.5968 </r>
       <r>   -10.3661     1.2412     5.7979 </r>
       <r>   -10.2582     0.7549     5.9095 </r>
       <r>   -10.1504     0.5259     5.9669 </r>
       <r>   -10.0426     0.0728     5.9961 </r>
       <r>    -9.9347     0.0000     6.0000 </r>
       <r>    -9.8269     0.0000     6.0000 </r>
       <r>    -9.7191     0.0000     6.0000 </r>
       <r>    -9.6113     0.0000     6.0000 </r>
       <r>    -9.5034     0.0000     6.0000 </r>
       <r>    -9.3956     0.0000     6.0000 </r>
       <r>    -9.2878     0.0000     6.0000 </r>
       <r>    -9.1799     0.0000     6.0000 </r>
       <r>    -9.0721     0.0000     6.0000 </r>
       <r>    -8.9643     0.0000     6.0000 </r>
       <r>    -8.8565     0.0000     6.0000 </r>
       <r>    -8.7486     0.0000     6.0000 </r>
       <r>    -8.6408     0.0000     6.0000 </r>
       <r>    -8.5330     0.0000     6.0000 </r>
       <r>    -8.4251     0.0000     6.0000 </r>
       <r>    -8.3173     0.0000     6.0000 </r>
       <r>    -8.2095     0.0000     6.0000 </r>
       <r>    -8.1016     0.0000     6.0000 </r>
       <r>    -7.9938     0.0000     6.0000 </r>
       <r>    -7.8860     0.4712     6.0508 </r>
       <r>    -7.7782     0.6521     6.1680 </r>
       <r>    -7.6703     2.1314     6.3978 </r>
       <r>    -7.5625     1.5259     6.6216 </r>
       <r>    -7.4547     1.5331     6.8802 </r>
       <r>    -7.3468     1.7586     7.1389 </r>
       <r>    -7.2390     2.6267     7.5371 </r>
       <r>    -7.1312     3.8636     7.9752 </r>
       <r>    -7.0234     1.8946     8.2785 </r>
       <r>    -6.9155     4.1562     8.8232 </r>
       <r>    -6.8077     2.6650     9.2014 </r>
       <r>    -6.6999     2.3881     9.6169 </r>
       <r>    -6.5920     3.4938    10.0877 </r>
       <r>    -6.4842     3.6752    10.4861 </r>
       <r>    -6.3764     1.8603    10.7592 </r>
       <r>    -6.2686     2.6314    11.1001 </r>
       <r>    -6.1607     2.6005    11.5499 </r>
       <r>    -6.0529     2.1848    11.7864 </r>
       <r>    -5.9451     0.4631    11.8937 </r>
       <r>    -5.8372     0.3074    11.9472 </r>
       <r>    -5.7294     0.2174    11.9883 </r>
       <r>    -5.6216     0.1087    12.0000 </r>
       <r>    -5.5137     0.0725    12.0078 </r>
       <r>    -5.4059     0.1449    12.0234 </r>
       <r>    -5.2981     0.0184    12.0254 </r>
       <r>    -5.1903     0.3637    12.0861 </r>
       <r>    -5.0824     0.4347    12.1563 </r>
       <r>    -4.9746     0.6497    12.2263 </r>
       <r>    -4.8668     0.2174    12.2852 </r>
       <r>    -4.7589     1.0575    12.3992 </r>
       <r>    -4.6511     1.2887    12.5413 </r>
       <r>    -4.5433     2.3216    12.8167 </r>
       <r>    -4.4355     0.6374    12.8929 </r>
       <r>    -4.3276     1.1930    13.1286 </r>
       <r>    -4.2198     2.3748    13.4905 </r>
       <r>    -4.1120     4.2910    14.0486 </r>
       <r>    -4.0041     3.7510    14.6115 </r>
       <r>    -3.8963     1.0407    14.8114 </r>
       <r>    -3.7885     2.8521    15.1943 </r>
       <r>    -3.6806     3.5869    15.6485 </r>
       <r>    -3.5728     0.8694    15.8242 </r>
       <r>    -3.4650     2.1740    16.0586 </r>
       <r>    -3.3572     3.4999    16.5532 </r>
       <r>    -3.2493     2.3950    16.9028 </r>
       <r>    -3.1415     2.1183    17.2011 </r>
       <r>    -3.0337     1.7220    17.5138 </r>
       <r>    -2.9258     4.0003    18.0524 </r>
       <r>    -2.8180     4.7147    18.6295 </r>
       <r>    -2.7102     2.1249    18.9440 </r>
       <r>    -2.6024     2.3802    19.2293 </r>
       <r>    -2.4945     3.5037    19.6669 </r>
       <r>    -2.3867     2.1572    19.9943 </r>
       <r>    -2.2789     3.2531    20.4523 </r>
       <r>    -2.1710     3.9306    20.9238 </r>
       <r>    -2.0632     2.0756    21.2512 </r>
       <r>    -1.9554     3.1901    21.7659 </r>
       <r>    -1.8475     2.1150    22.2163 </r>
       <r>    -1.7397     3.0573    22.8336 </r>
       <r>    -1.6319     4.5994    23.3944 </r>
       <r>    -1.5241     4.0479    23.9677 </r>
       <r>    -1.4162     4.5419    24.5796 </r>
       <r>    -1.3084     2.2492    25.0589 </r>
       <r>    -1.2006     5.1548    25.6808 </r>
       <r>    -1.0927     3.9816    26.2184 </r>
       <r>    -0.9849     1.6925    26.4559 </r>
       <r>    -0.8771     2.7041    26.7955 </r>
       <r>    -0.7693     2.6491    27.1255 </r>
       <r>    -0.6614     2.1031    27.5002 </r>
       <r>    -0.5536     2.1617    27.7526 </r>
       <r>    -0.4458     2.5203    28.0257 </r>
       <r>    -0.3379     0.1859    28.1841 </r>
       <r>    -0.2301     2.5944    28.4673 </r>
       <r>    -0.1223     2.1810    28.8055 </r>
       <r>    -0.0144     2.8212    29.2144 </r>
       <r>     0.0934     1.4478    29.3944 </r>
       <r>     0.2012     1.5222    29.5899 </r>
       <r>     0.3090     2.2128    29.8519 </r>
       <r>     0.4169     3.1416    30.2333 </r>
       <r>     0.5247     1.9565    30.5508 </r>
       <r>     0.6325     2.5854    30.9546 </r>
       <r>     0.7404     2.7424    31.2567 </r>
       <r>     0.8482     2.5567    31.7054 </r>
       <r>     0.9560     3.1455    32.1321 </r>
       <r>     1.0638     2.9805    32.5362 </r>
       <r>     1.1717     3.6596    33.0313 </r>
       <r>     1.2795     2.1731    33.3398 </r>
       <r>     1.3873     4.2817    33.9500 </r>
       <r>     1.4952     4.3748    34.4561 </r>
       <r>     1.6030     2.2307    34.8148 </r>
       <r>     1.7108     4.1142    35.2991 </r>
       <r>     1.8187     2.6107    35.7229 </r>
       <r>     1.9265     1.9120    36.1632 </r>
       <r>     2.0343     3.9967    36.7435 </r>
       <r>     2.1421     3.5215    37.2977 </r>
       <r>     2.2500     2.3097    37.6983 </r>
       <r>     2.3578     2.7906    38.0783 </r>
       <r>     2.4656     3.4898    38.5443 </r>
       <r>     2.5735     4.5808    39.2127 </r>
       <r>     2.6813     3.9746    39.8505 </r>
       <r>     2.7891     2.8128    40.2760 </r>
       <r>     2.8969     2.8390    40.7514 </r>
       <r>     3.0048     2.3318    41.1694 </r>
       <r>     3.1126     5.2429    41.9403 </r>
       <r>     3.2204     2.5427    42.3445 </r>
       <r>     3.3283     3.6756    42.8885 </r>
       <r>     3.4361     2.2486    43.2229 </r>
       <r>     3.5439     1.7511    43.5443 </r>
       <r>     3.6518     3.7223    44.0147 </r>
       <r>     3.7596     3.2432    44.4903 </r>
       <r>     3.8674     3.8344    45.0228 </r>
       <r>     3.9752     3.6916    45.5543 </r>
       <r>     4.0831     4.6239    46.0533 </r>
       <r>     4.1909     1.9967    46.4614 </r>
       <r>     4.2987     1.2435    46.6614 </r>
       <r>     4.4066     3.3073    47.2121 </r>
       <r>     4.5144     2.0335    47.5904 </r>
       <r>     4.6222     1.1954    47.7422 </r>
       <r>     4.7300     0.7244    47.8203 </r>
       <r>     4.8379     1.2732    47.9576 </r>
       <r>     4.9457     0.2174    47.9844 </r>
       <r>     5.0535     0.1398    47.9994 </r>
       <r>     5.1614     0.0000    48.0000 </r>
       <r>     5.2692     0.0000    48.0000 </r>
       <r>     5.3770     0.0000    48.0000 </r>
       <r>     5.4849     0.0000    48.0000 </r>
       <r>     5.5927     0.0000    48.0000 </r>
       <r>     5.7005     0.0000    48.0000 </r>
       <r>     5.8083     0.0000    48.0000 </r>
       <r>     5.9162     0.0000    48.0000 </r>
       <r>     6.0240     0.0000    48.0000 </r>
       <r>     6.1318     0.0000    48.0000 </r>
       <r>     6.2397     0.0000    48.0000 </r>
       <r>     6.3475     0.0000    48.0000 </r>
       <r>     6.4553     0.0000    48.0000 </r>
       <r>     6.5631     0.0000    48.0000 </r>
       <r>     6.6710     0.0000    48.0000 </r>
       <r>     6.7788     0.0000    48.0000 </r>
       <r>     6.8866     0.0000    48.0000 </r>
       <r>     6.9945     0.0000    48.0000 </r>
       <r>     7.1023     0.0000    48.0000 </r>
       <r>     7.2101     0.0000    48.0000 </r>
       <r>     7.3179     0.0000    48.0000 </r>
       <r>     7.4258     0.0000    48.0000 </r>
       <r>     7.5336     0.0000    48.0000 </r>
       <r>     7.6414     0.0000    48.0000 </r>
       <r>     7.7493     0.0000    48.0000 </r>
       <r>     7.8571     0.0000    48.0000 </r>
       <r>     7.9649     0.0000    48.0000 </r>
       <r>     8.0728     0.0000    48.0000 </r>
       <r>     8.1806     0.0000    48.0000 </r>
       <r>     8.2884     0.0000    48.0000 </r>
       <r>     8.3962     0.0000    48.0000 </r>
       <r>     8.5041     0.0000    48.0000 </r>
       <r>     8.6119     0.0000    48.0000 </r>
       <r>     8.7197     0.0000    48.0000 </r>
       <r>     8.8276     0.0000    48.0000 </r>
       <r>     8.9354     0.0362    48.0039 </r>
       <r>     9.0432     0.0000    48.0039 </r>
       <r>     9.1510     0.0063    48.0046 </r>
       <r>     9.2589     0.0515    48.0446 </r>
       <r>     9.3667     1.2536    48.2055 </r>
       <r>     9.4745     0.3878    48.3192 </r>
       <r>     9.5824     3.3104    48.7046 </r>
       <r>     9.6902     3.7447    49.2202 </r>
       <r>     9.7980     4.3977    49.7711 </r>
       <r>     9.9059     3.2852    50.3660 </r>
       <r>    10.0137     1.7157    50.6342 </r>
       <r>    10.1215     1.0733    50.7759 </r>
       <r>    10.2293     2.2375    51.0655 </r>
       <r>    10.3372     3.0333    51.4638 </r>
       <r>    10.4450     1.8057    51.7416 </r>
       <r>    10.5528     2.3078    52.0067 </r>
       <r>    10.6607     1.9567    52.2969 </r>
       <r>    10.7685     1.1804    52.4710 </r>
       <r>    10.8763     3.1063    52.9131 </r>
       <r>    10.9841     2.3466    53.3155 </r>
       <r>    11.0920     2.3287    53.5949 </r>
       <r>    11.1998     1.2048    53.8994 </r>
       <r>    11.3076     1.3508    54.1457 </r>
       <r>    11.4155     4.4788    54.7017 </r>
       <r>    11.5233     2.6074    55.0390 </r>
       <r>    11.6311     2.9624    55.4288 </r>
       <r>    11.7390     2.2087    55.7147 </r>
       <r>    11.8468     3.1842    56.1793 </r>
       <r>    11.9546     1.2686    56.4688 </r>
       <r>    12.0624     0.8499    56.6346 </r>
       <r>    12.1703     2.1805    57.0359 </r>
       <r>    12.2781     1.4122    57.3242 </r>
       <r>    12.3859     2.0026    57.6300 </r>
       <r>    12.4938     4.4791    58.3345 </r>
       <r>    12.6016     3.0506    58.8133 </r>
       <r>    12.7094     2.7383    59.2171 </r>
       <r>    12.8172     3.4011    59.7261 </r>
       <r>    12.9251     3.4944    60.2830 </r>
       <r>    13.0329     4.1529    60.8658 </r>
       <r>    13.1407     2.0381    61.2471 </r>
       <r>    13.2486     2.8512    61.5692 </r>
       <r>    13.3564     1.2566    61.8894 </r>
       <r>    13.4642     1.2330    62.0275 </r>
       <r>    13.5721     1.2265    62.3940 </r>
       <r>    13.6799     1.9491    62.6555 </r>
       <r>    13.7877     2.5382    62.9651 </r>
       <r>    13.8955     1.6096    63.1697 </r>
       <r>    14.0034     0.8903    63.2913 </r>
       <r>    14.1112     1.6691    63.5003 </r>
       <r>    14.2190     0.9214    63.6306 </r>
       <r>    14.3269     0.8375    63.7817 </r>
       <r>    14.4347     0.2898    63.8477 </r>
       <r>    14.5425     0.6730    63.9202 </r>
       <r>    14.6503     0.1449    63.9648 </r>
       <r>    14.7582     0.1449    63.9844 </r>
       <r>    14.8660     0.1449    64.0000 </r>
       <r>    14.9738     0.0000    64.0000 </r>
       <r>    15.0817     0.0000    64.0000 </r>
       <r>    15.1895     0.0000    64.0000 </r>
       <r>    15.2973     0.0000    64.0000 </r>
       <r>    15.4052     0.0000    64.0000 </r>
       <r>    15.5130     0.0000    64.0000 </r>
       <r>    15.6208     0.0000    64.0000 </r>
       <r>    15.7286     0.0000    64.0000 </r>
       <r>    15.8365     0.0000    64.0000 </r>
       <r>    15.9443     0.0000    64.0000 </r>
       <r>    16.0521     0.0000    64.0000 </r>
       <r>    16.1600     0.0000    64.0000 </r>
       <r>    16.2678     0.0000    64.0000 </r>
      </set>
     </set>
    </array>
   </total>
  </dos>
 </calculation>
 <structure name="finalpos" >
  <crystal>
   <varray name="basis" >
    <v>       5.21128944      -0.00183198      -0.00132293 </v>
    <v>      -2.35472141       4.64895989       0.00132293 </v>
    <v>      -2.35471712       1.44743372       4.41788713 </v>
   </varray>
   <i name="volume">    106.99348123 </i>
   <varray name="rec_basis" >
    <v>       0.19194314       0.09720011       0.07045927 </v>
    <v>       0.00005775       0.21515118      -0.07045927 </v>
    <v>       0.00005746      -0.00003532       0.22639474 </v>
   </varray>
  </crystal>
  <varray name="positions" >
   <v>       0.49999994       0.49999994       0.50000000 </v>
   <v>       0.66934316       0.00325553       0.00325509 </v>
   <v>       0.99674570       0.33065808       0.00325535 </v>
   <v>       0.32396096       0.19732857       0.19732731 </v>
   <v>       0.80267307       0.67604060       0.19732743 </v>
   <v>       0.19732817       0.80267348       0.32396087 </v>
   <v>       0.99674512       0.00325603       0.33065728 </v>
   <v>       0.00325603       0.99674512       0.66934272 </v>
   <v>       0.80267348       0.19732817       0.67603913 </v>
   <v>       0.19732857       0.32396096       0.80267269 </v>
   <v>       0.67604060       0.80267307       0.80267257 </v>
   <v>       0.00325553       0.66934316       0.99674491 </v>
   <v>       0.33065808       0.99674570       0.99674465 </v>
   <v>       0.62342718       0.37657444       0.37657565 </v>
   <v>       0.37657444       0.62342718       0.62342435 </v>
  </varray>
 </structure>
</modeling>
