B12BeN2                                 
            1
     5.235000    0.000000    0.000000
    -2.363793    4.670943    0.000000
    -2.363793    1.453013    4.439196
   Be   B    N 
     1    12     2
Direct configuration=     1
   0.50000000  0.50000000  0.50000000
   0.66925000  0.00367000  0.00367000
   0.99633000  0.33075000  0.00367000
   0.32360000  0.19706000  0.19706000
   0.80294000  0.67640000  0.19706000
   0.19706000  0.80295000  0.32360000
   0.99633000  0.00367000  0.33075000
   0.00367000  0.99633000  0.66925000
   0.80295000  0.19706000  0.67640000
   0.19706000  0.32360000  0.80294000
   0.67640000  0.80294000  0.80294000
   0.00367000  0.66925000  0.99633000
   0.33075000  0.99633000  0.99633000
   0.62370000  0.37630000  0.37630000
   0.37630000  0.62370000  0.62370000
B12BeN2                                 
            1
     5.192189   -0.000426   -0.000302
    -2.344843    4.632552    0.000302
    -2.344837    1.441360    4.402599
   Be   B    N 
     1    12     2
Direct configuration=     2
   0.50000001  0.50000001  0.50000000
   0.67019848  0.00340228  0.00340173
   0.99659842  0.32980296  0.00340252
   0.32417352  0.19737873  0.19737475
   0.80262470  0.67582933  0.19737439
   0.19737645  0.80262192  0.32417552
   0.99659677  0.00340337  0.32980293
   0.00340337  0.99659677  0.67019707
   0.80262192  0.19737645  0.67582448
   0.19737873  0.32417352  0.80262525
   0.67582933  0.80262470  0.80262561
   0.00340228  0.67019848  0.99659827
   0.32980296  0.99659842  0.99659748
   0.62311920  0.37688388  0.37688787
   0.37688388  0.62311920  0.62311213
B12BeN2                                 
            1
     5.211178   -0.000237   -0.000168
    -2.353248    4.649580    0.000168
    -2.353245    1.446529    4.418831
   Be   B    N 
     1    12     2
Direct configuration=     3
   0.50000000  0.50000000  0.50000000
   0.66977431  0.00352197  0.00352167
   0.99647841  0.33022648  0.00352211
   0.32391701  0.19723618  0.19723398
   0.80276572  0.67608457  0.19723378
   0.19723492  0.80276865  0.32391811
   0.99647750  0.00352257  0.33022647
   0.00352257  0.99647750  0.66977353
   0.80276865  0.19723492  0.67608189
   0.19723618  0.32391701  0.80276602
   0.67608457  0.80276572  0.80276622
   0.00352197  0.66977431  0.99647833
   0.33022648  0.99647841  0.99647789
   0.62337891  0.37662279  0.37662499
   0.37662279  0.62337891  0.62337501
B12BeN2                                 
            1
     5.210065   -0.001867   -0.001340
    -2.354199    4.647852    0.001340
    -2.354188    1.447109    4.416828
   Be   B    N 
     1    12     2
Direct configuration=     4
   0.49999998  0.49999998  0.50000000
   0.66902954  0.00319257  0.00319188
   0.99680857  0.33097166  0.00319232
   0.32402231  0.19737842  0.19737801
   0.80262351  0.67597925  0.19737829
   0.19737682  0.80262437  0.32402049
   0.99680790  0.00319306  0.33097035
   0.00319306  0.99680790  0.66902965
   0.80262437  0.19737682  0.67597951
   0.19737842  0.32402231  0.80262199
   0.67597925  0.80262351  0.80262171
   0.00319257  0.66902954  0.99680812
   0.33097166  0.99680857  0.99680768
   0.62350898  0.37649308  0.37649079
   0.37649308  0.62350898  0.62350921
B12BeN2                                 
            1
     5.210534   -0.001180   -0.000847
    -2.353799    4.648580    0.000847
    -2.353791    1.446864    4.417672
   Be   B    N 
     1    12     2
Direct configuration=     5
   0.49999999  0.49999999  0.50000000
   0.66934338  0.00333139  0.00333086
   0.99666943  0.33065765  0.00333130
   0.32397792  0.19731850  0.19731733
   0.80268342  0.67602365  0.19731741
   0.19731704  0.80268515  0.32397733
   0.99666866  0.00333193  0.33065689
   0.00333193  0.99666866  0.66934311
   0.80268515  0.19731704  0.67602267
   0.19731850  0.32397792  0.80268267
   0.67602365  0.80268342  0.80268259
   0.00333139  0.66934338  0.99666914
   0.33065765  0.99666943  0.99666870
   0.62345421  0.37654770  0.37654730
   0.37654770  0.62345421  0.62345270
B12BeN2                                 
            1
     5.211289   -0.001832   -0.001323
    -2.354721    4.648960    0.001323
    -2.354717    1.447434    4.417887
   Be   B    N 
     1    12     2
Direct configuration=     6
   0.49999994  0.49999994  0.50000000
   0.66934316  0.00325553  0.00325509
   0.99674570  0.33065808  0.00325535
   0.32396096  0.19732857  0.19732731
   0.80267307  0.67604060  0.19732743
   0.19732817  0.80267348  0.32396087
   0.99674512  0.00325603  0.33065728
   0.00325603  0.99674512  0.66934272
   0.80267348  0.19732817  0.67603913
   0.19732857  0.32396096  0.80267269
   0.67604060  0.80267307  0.80267257
   0.00325553  0.66934316  0.99674491
   0.33065808  0.99674570  0.99674465
   0.62342718  0.37657444  0.37657565
   0.37657444  0.62342718  0.62342435
