  15  15   0   0
  0.7132899E+01  0.5211290E-09  0.5211290E-09  0.5211284E-09  0.5000000E-15
   1.0000000000000000E-004
  CAR 
 B12BeN2                                 
     22.66981962    -16.38597455  301      5.12725874      1.00000000
    -16.386  0.0000E+00  0.0000E+00
    -16.256  0.0000E+00  0.0000E+00
    -16.126  0.0000E+00  0.0000E+00
    -15.995  0.0000E+00  0.0000E+00
    -15.865  0.0000E+00  0.0000E+00
    -15.735  0.0000E+00  0.0000E+00
    -15.605  0.0000E+00  0.0000E+00
    -15.475  0.0000E+00  0.0000E+00
    -15.344  0.0000E+00  0.0000E+00
    -15.214  0.0000E+00  0.0000E+00
    -15.084  0.0000E+00  0.0000E+00
    -14.954  0.0000E+00  0.0000E+00
    -14.824  0.0000E+00  0.0000E+00
    -14.694  0.0000E+00  0.0000E+00
    -14.563  0.1877E+00  0.2444E-01
    -14.433  0.1294E+01  0.2583E+00
    -14.303  0.1793E+01  0.6630E+00
    -14.173  0.2273E+01  0.1101E+01
    -14.043  0.3341E+01  0.1814E+01
    -13.912  0.5404E+00  0.2000E+01
    -13.782  0.3259E+01  0.2541E+01
    -13.652  0.3250E+01  0.3267E+01
    -13.522  0.2878E+01  0.3781E+01
    -13.392  0.2100E+00  0.4000E+01
    -13.262  0.0000E+00  0.4000E+01
    -13.131  0.0000E+00  0.4000E+01
    -13.001  0.0000E+00  0.4000E+01
    -12.871  0.0000E+00  0.4000E+01
    -12.741  0.0000E+00  0.4000E+01
    -12.611  0.0000E+00  0.4000E+01
    -12.480  0.0000E+00  0.4000E+01
    -12.350  0.0000E+00  0.4000E+01
    -12.220  0.0000E+00  0.4000E+01
    -12.090  0.0000E+00  0.4000E+01
    -11.960  0.0000E+00  0.4000E+01
    -11.829  0.0000E+00  0.4000E+01
    -11.699  0.0000E+00  0.4000E+01
    -11.569  0.0000E+00  0.4000E+01
    -11.439  0.0000E+00  0.4000E+01
    -11.309  0.0000E+00  0.4000E+01
    -11.179  0.0000E+00  0.4000E+01
    -11.048  0.0000E+00  0.4000E+01
    -10.918  0.1999E+01  0.4260E+01
    -10.788  0.1980E+01  0.4785E+01
    -10.658  0.1006E+01  0.5221E+01
    -10.528  0.1273E+01  0.5549E+01
    -10.397  0.8339E+00  0.5702E+01
    -10.267  0.5808E+00  0.5904E+01
    -10.137  0.3679E+00  0.5981E+01
    -10.007  0.2991E-01  0.6000E+01
     -9.877  0.0000E+00  0.6000E+01
     -9.746  0.0000E+00  0.6000E+01
     -9.616  0.0000E+00  0.6000E+01
     -9.486  0.0000E+00  0.6000E+01
     -9.356  0.0000E+00  0.6000E+01
     -9.226  0.0000E+00  0.6000E+01
     -9.096  0.0000E+00  0.6000E+01
     -8.965  0.0000E+00  0.6000E+01
     -8.835  0.0000E+00  0.6000E+01
     -8.705  0.0000E+00  0.6000E+01
     -8.575  0.0000E+00  0.6000E+01
     -8.445  0.0000E+00  0.6000E+01
     -8.314  0.0000E+00  0.6000E+01
     -8.184  0.0000E+00  0.6000E+01
     -8.054  0.0000E+00  0.6000E+01
     -7.924  0.1493E+00  0.6019E+01
     -7.794  0.8994E+00  0.6168E+01
     -7.664  0.1411E+01  0.6399E+01
     -7.533  0.1161E+01  0.6702E+01
     -7.403  0.1562E+01  0.7012E+01
     -7.273  0.2345E+01  0.7442E+01
     -7.143  0.2564E+01  0.7892E+01
     -7.013  0.1724E+01  0.8299E+01
     -6.882  0.2671E+01  0.8910E+01
     -6.752  0.3076E+01  0.9479E+01
     -6.622  0.3430E+01  0.1002E+02
     -6.492  0.2859E+01  0.1046E+02
     -6.362  0.1735E+01  0.1081E+02
     -6.231  0.2901E+01  0.1129E+02
     -6.101  0.1285E+01  0.1162E+02
     -5.971  0.4233E+00  0.1185E+02
     -5.841  0.1788E+00  0.1194E+02
     -5.711  0.3668E-14  0.1199E+02
     -5.581  0.1349E+00  0.1201E+02
     -5.450  0.1200E+00  0.1202E+02
     -5.320  0.6410E-06  0.1202E+02
     -5.190  0.3014E+00  0.1209E+02
     -5.060  0.3655E+00  0.1216E+02
     -4.930  0.8491E+00  0.1228E+02
     -4.799  0.3601E+00  0.1233E+02
     -4.669  0.7009E+00  0.1249E+02
     -4.539  0.1957E+01  0.1282E+02
     -4.409  0.1158E+01  0.1298E+02
     -4.279  0.1738E+01  0.1334E+02
     -4.148  0.2637E+01  0.1384E+02
     -4.018  0.3229E+01  0.1456E+02
     -3.888  0.1037E+01  0.1483E+02
     -3.758  0.2478E+01  0.1530E+02
     -3.628  0.1643E+01  0.1578E+02
     -3.498  0.1340E+01  0.1600E+02
     -3.367  0.3142E+01  0.1647E+02
     -3.237  0.1955E+01  0.1692E+02
     -3.107  0.1836E+01  0.1733E+02
     -2.977  0.2511E+01  0.1775E+02
     -2.847  0.2910E+01  0.1843E+02
     -2.716  0.1801E+01  0.1894E+02
     -2.586  0.2380E+01  0.1928E+02
     -2.456  0.2736E+01  0.1976E+02
     -2.326  0.2959E+01  0.2029E+02
     -2.196  0.3045E+01  0.2085E+02
     -2.066  0.1648E+01  0.2124E+02
     -1.935  0.3878E+01  0.2195E+02
     -1.805  0.4427E+01  0.2259E+02
     -1.675  0.1827E+01  0.2304E+02
     -1.545  0.2893E+01  0.2386E+02
     -1.415  0.3806E+01  0.2459E+02
     -1.284  0.1248E+01  0.2510E+02
     -1.154  0.2546E+01  0.2586E+02
     -1.024  0.1090E+01  0.2633E+02
     -0.894  0.2112E+01  0.2676E+02
     -0.764  0.2406E+01  0.2715E+02
     -0.633  0.1856E+01  0.2754E+02
     -0.503  0.1291E+01  0.2780E+02
     -0.373  0.1530E+01  0.2816E+02
     -0.243  0.1817E+01  0.2842E+02
     -0.113  0.2090E+01  0.2884E+02
      0.017  0.1761E+01  0.2928E+02
      0.148  0.1056E+01  0.2952E+02
      0.278  0.1520E+01  0.2979E+02
      0.408  0.2306E+01  0.3019E+02
      0.538  0.2024E+01  0.3063E+02
      0.668  0.1247E+01  0.3098E+02
      0.799  0.2546E+01  0.3153E+02
      0.929  0.2166E+01  0.3203E+02
      1.059  0.2186E+01  0.3250E+02
      1.189  0.2632E+01  0.3307E+02
      1.319  0.2648E+01  0.3352E+02
      1.450  0.2571E+01  0.3423E+02
      1.580  0.1990E+01  0.3474E+02
      1.710  0.3361E+01  0.3529E+02
      1.840  0.2903E+01  0.3589E+02
      1.970  0.2481E+01  0.3644E+02
      2.100  0.4206E+01  0.3713E+02
      2.231  0.2007E+01  0.3762E+02
      2.361  0.2387E+01  0.3809E+02
      2.491  0.3412E+01  0.3868E+02
      2.621  0.4468E+01  0.3951E+02
      2.751  0.2463E+01  0.4011E+02
      2.882  0.2622E+01  0.4067E+02
      3.012  0.2264E+01  0.4121E+02
      3.142  0.4076E+01  0.4207E+02
      3.272  0.2324E+01  0.4256E+02
      3.402  0.1894E+01  0.4310E+02
      3.532  0.1377E+01  0.4351E+02
      3.663  0.2691E+01  0.4406E+02
      3.793  0.2367E+01  0.4466E+02
      3.923  0.3939E+01  0.4536E+02
      4.053  0.2304E+01  0.4585E+02
      4.183  0.1466E+01  0.4644E+02
      4.314  0.1146E+01  0.4672E+02
      4.444  0.3686E+01  0.4745E+02
      4.574  0.1169E+01  0.4770E+02
      4.704  0.4436E+00  0.4780E+02
      4.834  0.1029E+01  0.4795E+02
      4.965  0.1800E+00  0.4798E+02
      5.095  0.1200E+00  0.4800E+02
      5.225  0.0000E+00  0.4800E+02
      5.355  0.0000E+00  0.4800E+02
      5.485  0.0000E+00  0.4800E+02
      5.615  0.0000E+00  0.4800E+02
      5.746  0.0000E+00  0.4800E+02
      5.876  0.0000E+00  0.4800E+02
      6.006  0.0000E+00  0.4800E+02
      6.136  0.0000E+00  0.4800E+02
      6.266  0.0000E+00  0.4800E+02
      6.397  0.0000E+00  0.4800E+02
      6.527  0.0000E+00  0.4800E+02
      6.657  0.0000E+00  0.4800E+02
      6.787  0.0000E+00  0.4800E+02
      6.917  0.0000E+00  0.4800E+02
      7.048  0.0000E+00  0.4800E+02
      7.178  0.0000E+00  0.4800E+02
      7.308  0.0000E+00  0.4800E+02
      7.438  0.0000E+00  0.4800E+02
      7.568  0.0000E+00  0.4800E+02
      7.698  0.0000E+00  0.4800E+02
      7.829  0.0000E+00  0.4800E+02
      7.959  0.0000E+00  0.4800E+02
      8.089  0.0000E+00  0.4800E+02
      8.219  0.0000E+00  0.4800E+02
      8.349  0.0000E+00  0.4800E+02
      8.480  0.0000E+00  0.4800E+02
      8.610  0.0000E+00  0.4800E+02
      8.740  0.0000E+00  0.4800E+02
      8.870  0.8839E-02  0.4800E+02
      9.000  0.0000E+00  0.4800E+02
      9.130  0.3270E-06  0.4800E+02
      9.261  0.4746E-01  0.4805E+02
      9.391  0.1200E+01  0.4827E+02
      9.521  0.1048E+01  0.4844E+02
      9.651  0.2806E+01  0.4904E+02
      9.781  0.2825E+01  0.4959E+02
      9.912  0.2847E+01  0.5038E+02
     10.042  0.1265E+01  0.5066E+02
     10.172  0.1538E+01  0.5088E+02
     10.302  0.1713E+01  0.5129E+02
     10.432  0.1444E+01  0.5169E+02
     10.563  0.2086E+01  0.5203E+02
     10.693  0.1983E+01  0.5234E+02
     10.823  0.1981E+01  0.5272E+02
     10.953  0.2075E+01  0.5315E+02
     11.083  0.1704E+01  0.5357E+02
     11.213  0.1205E+01  0.5393E+02
     11.344  0.1537E+01  0.5422E+02
     11.474  0.1488E+01  0.5486E+02
     11.604  0.2580E+01  0.5537E+02
     11.734  0.1982E+01  0.5571E+02
     11.864  0.3351E+01  0.5628E+02
     11.995  0.1264E+01  0.5654E+02
     12.125  0.2532E+01  0.5694E+02
     12.255  0.1390E+01  0.5724E+02
     12.385  0.1626E+01  0.5763E+02
     12.515  0.3554E+01  0.5845E+02
     12.645  0.2727E+01  0.5903E+02
     12.776  0.2670E+01  0.5956E+02
     12.906  0.2694E+01  0.6016E+02
     13.036  0.3637E+01  0.6089E+02
     13.166  0.9658E+00  0.6127E+02
     13.296  0.2295E+01  0.6183E+02
     13.427  0.1200E+01  0.6204E+02
     13.557  0.1551E+01  0.6249E+02
     13.687  0.1743E+01  0.6279E+02
     13.817  0.2121E+01  0.6322E+02
     13.947  0.1981E+01  0.6370E+02
     14.078  0.3455E+01  0.6429E+02
     14.208  0.1514E+01  0.6459E+02
     14.338  0.2577E+01  0.6509E+02
     14.468  0.1660E+01  0.6548E+02
     14.598  0.3640E+01  0.6610E+02
     14.728  0.3286E+01  0.6674E+02
     14.859  0.1995E+01  0.6723E+02
     14.989  0.1531E+01  0.6781E+02
     15.119  0.3442E+01  0.6854E+02
     15.249  0.2566E+01  0.6914E+02
     15.379  0.4090E+01  0.6990E+02
     15.510  0.2988E+01  0.7043E+02
     15.640  0.3311E+01  0.7126E+02
     15.770  0.3203E+01  0.7186E+02
     15.900  0.3640E+01  0.7264E+02
     16.030  0.3227E+01  0.7330E+02
     16.161  0.2819E+01  0.7391E+02
     16.291  0.4534E+01  0.7473E+02
     16.421  0.4947E+01  0.7550E+02
     16.551  0.4029E+01  0.7633E+02
     16.681  0.2471E+01  0.7688E+02
     16.811  0.3838E+01  0.7754E+02
     16.942  0.2105E+01  0.7809E+02
     17.072  0.2557E+01  0.7876E+02
     17.202  0.3086E+01  0.7949E+02
     17.332  0.2686E+01  0.8026E+02
     17.462  0.2616E+01  0.8104E+02
     17.593  0.1590E+01  0.8148E+02
     17.723  0.3817E+01  0.8230E+02
     17.853  0.1603E+01  0.8282E+02
     17.983  0.1905E+01  0.8338E+02
     18.113  0.2352E+01  0.8388E+02
     18.243  0.3623E+01  0.8470E+02
     18.374  0.2102E+01  0.8541E+02
     18.504  0.3201E+01  0.8607E+02
     18.634  0.3187E+01  0.8674E+02
     18.764  0.2156E+01  0.8727E+02
     18.894  0.2349E+01  0.8781E+02
     19.025  0.2888E+01  0.8832E+02
     19.155  0.2762E+01  0.8893E+02
     19.285  0.4757E+01  0.8978E+02
     19.415  0.2407E+01  0.9031E+02
     19.545  0.4207E+01  0.9115E+02
     19.676  0.2926E+01  0.9169E+02
     19.806  0.1870E+01  0.9212E+02
     19.936  0.2822E+01  0.9293E+02
     20.066  0.2099E+01  0.9344E+02
     20.196  0.3145E+01  0.9416E+02
     20.326  0.4683E+01  0.9497E+02
     20.457  0.3111E+01  0.9548E+02
     20.587  0.1128E+01  0.9576E+02
     20.717  0.5195E+00  0.9590E+02
     20.847  0.2450E+00  0.9598E+02
     20.977  0.0000E+00  0.9600E+02
     21.108  0.0000E+00  0.9600E+02
     21.238  0.0000E+00  0.9600E+02
     21.368  0.0000E+00  0.9600E+02
     21.498  0.0000E+00  0.9600E+02
     21.628  0.0000E+00  0.9600E+02
     21.759  0.0000E+00  0.9600E+02
     21.889  0.0000E+00  0.9600E+02
     22.019  0.0000E+00  0.9600E+02
     22.149  0.0000E+00  0.9600E+02
     22.279  0.0000E+00  0.9600E+02
     22.409  0.0000E+00  0.9600E+02
     22.540  0.0000E+00  0.9600E+02
     22.670  0.0000E+00  0.9600E+02
