   15   15    1    1
  0.7132899E+01  0.5211290E-09  0.5211290E-09  0.5211284E-09  0.5000000E-15
   1.0000000000000000E-004
  CAR 
 B12BeN2                                 
     48     65     48
 
  0.1262379E-14  0.1262379E-14  0.1262379E-14  0.1953125E-02
      1        -14.610711   1.000000
      2        -13.447577   1.000000
      3        -10.303343   1.000000
      4         -6.527389   1.000000
      5         -6.527337   1.000000
      6         -5.849481   1.000000
      7         -4.994328   1.000000
      8         -4.994318   1.000000
      9         -3.138017   1.000000
     10         -2.706980   1.000000
     11         -2.706916   1.000000
     12         -2.047773   1.000000
     13         -2.047727   1.000000
     14         -1.741347   1.000000
     15         -1.070656   1.000000
     16          1.254556   1.000000
     17          1.254569   1.000000
     18          2.297043   1.000000
     19          2.714937   1.000000
     20          2.743879   1.000000
     21          2.743950   1.000000
     22          3.279869   1.000000
     23          4.440746   1.000000
     24          4.440779   1.000000
     25         11.735911   0.000000
     26         11.778477   0.000000
     27         11.778491   0.000000
     28         12.631358   0.000000
     29         12.631408   0.000000
     30         13.601641   0.000000
     31         13.763989   0.000000
     32         13.990862   0.000000
     33         13.990873   0.000000
     34         14.687589   0.000000
     35         15.476900   0.000000
     36         15.687499   0.000000
     37         15.687532   0.000000
     38         15.993256   0.000000
     39         16.241877   0.000000
     40         16.321788   0.000000
     41         16.321821   0.000000
     42         17.204990   0.000000
     43         17.205007   0.000000
     44         17.585691   0.000000
     45         17.585744   0.000000
     46         18.883390   0.000000
     47         18.889494   0.000000
     48         19.955731   0.000000
 
  0.1250000E+00  0.1281575E-14  0.1259262E-14  0.1171875E-01
      1        -14.562226   1.000000
      2        -13.478388   1.000000
      3        -10.394293   1.000000
      4         -6.630835   1.000000
      5         -6.601395   1.000000
      6         -5.968326   1.000000
      7         -4.774928   1.000000
      8         -4.613612   1.000000
      9         -3.146918   1.000000
     10         -3.002870   1.000000
     11         -2.830272   1.000000
     12         -2.335813   1.000000
     13         -1.763787   1.000000
     14         -1.260960   1.000000
     15         -0.870272   1.000000
     16          1.031720   1.000000
     17          1.392881   1.000000
     18          2.345608   1.000000
     19          2.413104   1.000000
     20          2.535891   1.000000
     21          2.851405   1.000000
     22          3.333617   1.000000
     23          4.279200   1.000000
     24          4.471684   1.000000
     25         11.551278   0.000000
     26         11.592525   0.000000
     27         11.918106   0.000000
     28         12.297730   0.000000
     29         12.692373   0.000000
     30         13.179588   0.000000
     31         13.480348   0.000000
     32         13.846950   0.000000
     33         14.523508   0.000000
     34         14.612454   0.000000
     35         15.441740   0.000000
     36         15.528397   0.000000
     37         15.779016   0.000000
     38         16.116325   0.000000
     39         16.234870   0.000000
     40         16.428123   0.000000
     41         16.542185   0.000000
     42         16.969480   0.000000
     43         17.047867   0.000000
     44         17.703393   0.000000
     45         17.965312   0.000000
     46         19.048710   0.000000
     47         19.258443   0.000000
     48         19.437977   0.000000
 
  0.2500000E+00  0.1279138E-14  0.1232453E-14  0.1171875E-01
      1        -14.427704   1.000000
      2        -13.566487   1.000000
      3        -10.619991   1.000000
      4         -6.815487   1.000000
      5         -6.623046   1.000000
      6         -6.174540   1.000000
      7         -4.326926   1.000000
      8         -3.976807   1.000000
      9         -3.326026   1.000000
     10         -3.294266   1.000000
     11         -2.942654   1.000000
     12         -2.153811   1.000000
     13         -1.498736   1.000000
     14         -1.237255   1.000000
     15         -0.257651   1.000000
     16          1.279746   1.000000
     17          1.637598   1.000000
     18          1.668747   1.000000
     19          1.713674   1.000000
     20          2.407594   1.000000
     21          3.306299   1.000000
     22          3.347099   1.000000
     23          3.818122   1.000000
     24          4.523991   1.000000
     25         10.877927   0.000000
     26         11.094470   0.000000
     27         11.279507   0.000000
     28         11.810299   0.000000
     29         13.070028   0.000000
     30         13.137339   0.000000
     31         13.347773   0.000000
     32         13.835795   0.000000
     33         14.591504   0.000000
     34         14.736932   0.000000
     35         15.034273   0.000000
     36         15.258871   0.000000
     37         15.872350   0.000000
     38         16.091484   0.000000
     39         16.352179   0.000000
     40         16.673804   0.000000
     41         17.000192   0.000000
     42         17.428752   0.000000
     43         17.605953   0.000000
     44         18.280302   0.000000
     45         18.667861   0.000000
     46         19.140070   0.000000
     47         19.636013   0.000000
     48         20.157750   0.000000
 
  0.3750000E+00  0.1308005E-14  0.1209684E-14  0.1171875E-01
      1        -14.245628   1.000000
      2        -13.696102   1.000000
      3        -10.850403   1.000000
      4         -6.951832   1.000000
      5         -6.622112   1.000000
      6         -6.191545   1.000000
      7         -4.202323   1.000000
      8         -4.144913   1.000000
      9         -3.082297   1.000000
     10         -3.017479   1.000000
     11         -2.442472   1.000000
     12         -1.944200   1.000000
     13         -1.643820   1.000000
     14         -1.522359   1.000000
     15          0.502186   1.000000
     16          0.841832   1.000000
     17          1.117544   1.000000
     18          1.622815   1.000000
     19          1.929394   1.000000
     20          2.523103   1.000000
     21          3.124371   1.000000
     22          3.500937   1.000000
     23          3.578041   1.000000
     24          4.549542   1.000000
     25         10.029894   0.000000
     26         10.209567   0.000000
     27         10.560904   0.000000
     28         11.377879   0.000000
     29         13.412999   0.000000
     30         13.536456   0.000000
     31         13.654806   0.000000
     32         14.071917   0.000000
     33         14.392129   0.000000
     34         14.696966   0.000000
     35         14.721794   0.000000
     36         14.998985   0.000000
     37         15.802159   0.000000
     38         16.070152   0.000000
     39         16.991939   0.000000
     40         17.144003   0.000000
     41         17.467478   0.000000
     42         18.168077   0.000000
     43         18.271035   0.000000
     44         18.805436   0.000000
     45         19.127205   0.000000
     46         19.489628   0.000000
     47         19.949932   0.000000
     48         20.160020   0.000000
 
  0.5000000E+00  0.1297513E-14  0.1205142E-14  0.5859375E-02
      1        -14.129892   1.000000
      2        -13.788157   1.000000
      3        -10.946590   1.000000
      4         -6.999713   1.000000
      5         -6.656443   1.000000
      6         -6.101346   1.000000
      7         -4.409233   1.000000
      8         -4.169093   1.000000
      9         -2.981806   1.000000
     10         -2.477171   1.000000
     11         -2.368508   1.000000
     12         -2.077265   1.000000
     13         -1.585698   1.000000
     14         -1.346470   1.000000
     15         -0.178412   1.000000
     16          0.967564   1.000000
     17          1.204866   1.000000
     18          1.935028   1.000000
     19          1.957466   1.000000
     20          2.419533   1.000000
     21          2.826758   1.000000
     22          3.629878   1.000000
     23          3.664011   1.000000
     24          4.545448   1.000000
     25          9.659322   0.000000
     26          9.743981   0.000000
     27         10.312145   0.000000
     28         11.187972   0.000000
     29         13.569477   0.000000
     30         13.714272   0.000000
     31         13.873725   0.000000
     32         14.166711   0.000000
     33         14.183384   0.000000
     34         14.583000   0.000000
     35         14.843767   0.000000
     36         15.080023   0.000000
     37         15.546051   0.000000
     38         16.044097   0.000000
     39         17.169092   0.000000
     40         17.775997   0.000000
     41         18.033914   0.000000
     42         18.252726   0.000000
     43         18.513128   0.000000
     44         18.843164   0.000000
     45         19.064635   0.000000
     46         19.478607   0.000000
     47         19.517510   0.000000
     48         20.185970   0.000000
 
  0.1250000E+00  0.1250000E+00  0.1262336E-14  0.1171875E-01
      1        -14.477278   1.000000
      2        -13.536374   1.000000
      3        -10.550396   1.000000
      4         -6.846812   1.000000
      5         -6.558845   1.000000
      6         -6.067048   1.000000
      7         -4.229358   1.000000
      8         -4.191732   1.000000
      9         -3.435378   1.000000
     10         -3.175326   1.000000
     11         -2.886198   1.000000
     12         -2.198668   1.000000
     13         -1.825839   1.000000
     14         -1.021467   1.000000
     15         -0.721269   1.000000
     16          1.283565   1.000000
     17          1.504647   1.000000
     18          1.798894   1.000000
     19          1.934057   1.000000
     20          2.432789   1.000000
     21          2.981879   1.000000
     22          3.451873   1.000000
     23          4.307751   1.000000
     24          4.387845   1.000000
     25         11.160003   0.000000
     26         11.489519   0.000000
     27         11.555672   0.000000
     28         12.445044   0.000000
     29         12.458595   0.000000
     30         12.989685   0.000000
     31         13.473682   0.000000
     32         13.827794   0.000000
     33         14.591640   0.000000
     34         14.597535   0.000000
     35         15.140412   0.000000
     36         15.429644   0.000000
     37         15.853468   0.000000
     38         16.098031   0.000000
     39         16.406073   0.000000
     40         16.496805   0.000000
     41         16.844982   0.000000
     42         17.111294   0.000000
     43         17.404838   0.000000
     44         17.638514   0.000000
     45         18.485035   0.000000
     46         19.748472   0.000000
     47         19.851741   0.000000
     48         20.262036   0.000000
 
  0.2500000E+00  0.1250000E+00  0.1282187E-14  0.2343750E-01
      1        -14.319554   1.000000
      2        -13.643305   1.000000
      3        -10.771312   1.000000
      4         -6.983217   1.000000
      5         -6.557580   1.000000
      6         -6.251112   1.000000
      7         -4.033842   1.000000
      8         -3.732385   1.000000
      9         -3.535303   1.000000
     10         -2.950139   1.000000
     11         -2.600160   1.000000
     12         -2.311733   1.000000
     13         -1.682012   1.000000
     14         -1.241523   1.000000
     15         -0.031782   1.000000
     16          1.024208   1.000000
     17          1.130439   1.000000
     18          1.798160   1.000000
     19          1.972216   1.000000
     20          2.251827   1.000000
     21          2.915915   1.000000
     22          3.748628   1.000000
     23          3.871992   1.000000
     24          4.404222   1.000000
     25         10.320388   0.000000
     26         10.956422   0.000000
     27         11.108660   0.000000
     28         11.801513   0.000000
     29         12.631055   0.000000
     30         13.039829   0.000000
     31         13.472201   0.000000
     32         13.953604   0.000000
     33         14.283355   0.000000
     34         14.671993   0.000000
     35         15.162933   0.000000
     36         15.540535   0.000000
     37         15.782070   0.000000
     38         16.201569   0.000000
     39         16.529593   0.000000
     40         16.972232   0.000000
     41         17.242947   0.000000
     42         17.409968   0.000000
     43         18.156701   0.000000
     44         18.470205   0.000000
     45         19.027726   0.000000
     46         19.408627   0.000000
     47         20.060643   0.000000
     48         20.272048   0.000000
 
  0.3750000E+00  0.1250000E+00  0.1239326E-14  0.2343750E-01
      1        -14.145698   1.000000
      2        -13.770582   1.000000
      3        -10.932716   1.000000
      4         -7.035984   1.000000
      5         -6.689514   1.000000
      6         -6.220505   1.000000
      7         -4.307726   1.000000
      8         -3.844579   1.000000
      9         -3.123109   1.000000
     10         -2.814396   1.000000
     11         -2.149818   1.000000
     12         -1.848576   1.000000
     13         -1.566783   1.000000
     14         -1.403452   1.000000
     15         -0.038359   1.000000
     16          0.712248   1.000000
     17          0.847488   1.000000
     18          1.844089   1.000000
     19          2.142352   1.000000
     20          2.435656   1.000000
     21          3.080115   1.000000
     22          3.309127   1.000000
     23          3.866542   1.000000
     24          4.430003   1.000000
     25          9.735201   0.000000
     26         10.165658   0.000000
     27         10.441298   0.000000
     28         11.561139   0.000000
     29         12.744251   0.000000
     30         13.199941   0.000000
     31         13.395740   0.000000
     32         13.934574   0.000000
     33         14.489697   0.000000
     34         14.788117   0.000000
     35         14.965996   0.000000
     36         15.721421   0.000000
     37         16.025366   0.000000
     38         16.329989   0.000000
     39         16.700658   0.000000
     40         17.119356   0.000000
     41         17.730005   0.000000
     42         18.149609   0.000000
     43         18.298050   0.000000
     44         18.857029   0.000000
     45         19.254243   0.000000
     46         19.665090   0.000000
     47         20.166721   0.000000
     48         20.278471   0.000000
 
  0.5000000E+00  0.1250000E+00  0.1251561E-14  0.2343750E-01
      1        -14.129753   1.000000
      2        -13.778132   1.000000
      3        -10.931391   1.000000
      4         -7.005036   1.000000
      5         -6.807413   1.000000
      6         -6.241618   1.000000
      7         -4.201225   1.000000
      8         -4.013093   1.000000
      9         -3.362253   1.000000
     10         -2.628522   1.000000
     11         -2.014733   1.000000
     12         -1.835010   1.000000
     13         -1.492939   1.000000
     14         -1.249916   1.000000
     15         -0.046539   1.000000
     16          0.743222   1.000000
     17          1.247581   1.000000
     18          1.425472   1.000000
     19          2.082951   1.000000
     20          2.588191   1.000000
     21          2.885378   1.000000
     22          3.450764   1.000000
     23          3.791758   1.000000
     24          4.438952   1.000000
     25          9.780090   0.000000
     26          9.786042   0.000000
     27         10.322081   0.000000
     28         11.482224   0.000000
     29         12.915457   0.000000
     30         13.122506   0.000000
     31         13.221175   0.000000
     32         14.075219   0.000000
     33         14.550960   0.000000
     34         14.761195   0.000000
     35         15.078129   0.000000
     36         15.720471   0.000000
     37         15.923097   0.000000
     38         16.217957   0.000000
     39         16.965891   0.000000
     40         17.242592   0.000000
     41         17.758600   0.000000
     42         18.239808   0.000000
     43         18.391230   0.000000
     44         18.809896   0.000000
     45         19.036716   0.000000
     46         19.274407   0.000000
     47         19.893664   0.000000
     48         20.121541   0.000000
 
 -0.3750000E+00  0.1250000E+00  0.1300134E-14  0.2343750E-01
      1        -14.294110   1.000000
      2        -13.649949   1.000000
      3        -10.761054   1.000000
      4         -6.929154   1.000000
      5         -6.840706   1.000000
      6         -6.301021   1.000000
      7         -4.130776   1.000000
      8         -3.830349   1.000000
      9         -3.686546   1.000000
     10         -2.882133   1.000000
     11         -2.609785   1.000000
     12         -1.828863   1.000000
     13         -1.391422   1.000000
     14         -1.126899   1.000000
     15          0.355292   1.000000
     16          0.901073   1.000000
     17          1.105939   1.000000
     18          1.455688   1.000000
     19          2.146146   1.000000
     20          2.579231   1.000000
     21          2.969024   1.000000
     22          3.212760   1.000000
     23          3.868292   1.000000
     24          4.403029   1.000000
     25         10.192011   0.000000
     26         10.407910   0.000000
     27         10.797437   0.000000
     28         11.542161   0.000000
     29         12.930088   0.000000
     30         13.007369   0.000000
     31         13.041978   0.000000
     32         14.225664   0.000000
     33         14.532222   0.000000
     34         14.619524   0.000000
     35         15.130327   0.000000
     36         15.522950   0.000000
     37         15.895604   0.000000
     38         16.158589   0.000000
     39         16.758369   0.000000
     40         16.894077   0.000000
     41         17.076565   0.000000
     42         17.797003   0.000000
     43         18.452942   0.000000
     44         18.716717   0.000000
     45         18.899157   0.000000
     46         19.347668   0.000000
     47         19.513443   0.000000
     48         20.115763   0.000000
 
 -0.2500000E+00  0.1250000E+00  0.1281714E-14  0.2343750E-01
      1        -14.456908   1.000000
      2        -13.539772   1.000000
      3        -10.528502   1.000000
      4         -6.943005   1.000000
      5         -6.647402   1.000000
      6         -6.223235   1.000000
      7         -4.413919   1.000000
      8         -4.120888   1.000000
      9         -3.734543   1.000000
     10         -3.021923   1.000000
     11         -2.496006   1.000000
     12         -1.970019   1.000000
     13         -1.657835   1.000000
     14         -0.909571   1.000000
     15         -0.569217   1.000000
     16          1.139648   1.000000
     17          1.543926   1.000000
     18          1.837783   1.000000
     19          2.033833   1.000000
     20          2.511855   1.000000
     21          3.064328   1.000000
     22          3.584905   1.000000
     23          3.673449   1.000000
     24          4.388105   1.000000
     25         11.017700   0.000000
     26         11.135211   0.000000
     27         11.393705   0.000000
     28         11.843009   0.000000
     29         12.677901   0.000000
     30         12.885421   0.000000
     31         13.255350   0.000000
     32         14.182251   0.000000
     33         14.385957   0.000000
     34         14.561331   0.000000
     35         15.318476   0.000000
     36         15.508530   0.000000
     37         15.854366   0.000000
     38         16.211173   0.000000
     39         16.365180   0.000000
     40         16.564663   0.000000
     41         16.845324   0.000000
     42         17.187108   0.000000
     43         17.636438   0.000000
     44         17.913613   0.000000
     45         18.594993   0.000000
     46         18.876393   0.000000
     47         19.696143   0.000000
     48         20.293117   0.000000
 
 -0.1250000E+00  0.1250000E+00  0.1246516E-14  0.1171875E-01
      1        -14.554586   1.000000
      2        -13.479479   1.000000
      3        -10.381294   1.000000
      4         -6.798293   1.000000
      5         -6.492965   1.000000
      6         -6.079581   1.000000
      7         -4.767377   1.000000
      8         -4.647195   1.000000
      9         -3.445792   1.000000
     10         -2.778583   1.000000
     11         -2.540675   1.000000
     12         -2.108153   1.000000
     13         -1.956654   1.000000
     14         -1.222398   1.000000
     15         -0.828985   1.000000
     16          1.195800   1.000000
     17          1.280632   1.000000
     18          2.251032   1.000000
     19          2.384628   1.000000
     20          2.546084   1.000000
     21          3.100713   1.000000
     22          3.323262   1.000000
     23          4.079857   1.000000
     24          4.400988   1.000000
     25         11.366268   0.000000
     26         11.686689   0.000000
     27         11.763142   0.000000
     28         12.128447   0.000000
     29         12.842519   0.000000
     30         12.984303   0.000000
     31         13.478585   0.000000
     32         14.041776   0.000000
     33         14.315477   0.000000
     34         14.370043   0.000000
     35         15.516383   0.000000
     36         15.714283   0.000000
     37         15.951233   0.000000
     38         16.001175   0.000000
     39         16.431168   0.000000
     40         16.458252   0.000000
     41         16.584172   0.000000
     42         16.945339   0.000000
     43         17.164800   0.000000
     44         17.224700   0.000000
     45         18.253651   0.000000
     46         18.712183   0.000000
     47         19.357855   0.000000
     48         19.596702   0.000000
 
  0.2500000E+00  0.2500000E+00  0.1267521E-14  0.1171875E-01
      1        -14.160146   1.000000
      2        -13.754413   1.000000
      3        -10.918479   1.000000
      4         -7.127354   1.000000
      5         -6.558566   1.000000
      6         -6.422684   1.000000
      7         -4.284224   1.000000
      8         -3.385240   1.000000
      9         -3.192899   1.000000
     10         -2.639153   1.000000
     11         -2.618011   1.000000
     12         -2.105665   1.000000
     13         -1.429067   1.000000
     14         -0.799117   1.000000
     15         -0.090600   1.000000
     16          0.424109   1.000000
     17          0.445274   1.000000
     18          2.030827   1.000000
     19          2.126294   1.000000
     20          2.624465   1.000000
     21          2.675517   1.000000
     22          3.620272   1.000000
     23          4.015637   1.000000
     24          4.147781   1.000000
     25          9.800150   0.000000
     26         10.501890   0.000000
     27         11.137462   0.000000
     28         11.424626   0.000000
     29         12.283241   0.000000
     30         12.930174   0.000000
     31         13.022299   0.000000
     32         14.020249   0.000000
     33         14.230349   0.000000
     34         14.642584   0.000000
     35         15.328834   0.000000
     36         15.717204   0.000000
     37         16.197352   0.000000
     38         16.596809   0.000000
     39         16.873437   0.000000
     40         17.288822   0.000000
     41         17.495712   0.000000
     42         17.584327   0.000000
     43         18.251789   0.000000
     44         18.532236   0.000000
     45         19.012924   0.000000
     46         19.727062   0.000000
     47         19.904248   0.000000
     48         20.490261   0.000000
 
  0.3750000E+00  0.2500000E+00  0.1232098E-14  0.2343750E-01
      1        -14.024918   1.000000
      2        -13.856083   1.000000
      3        -10.968457   1.000000
      4         -7.265372   1.000000
      5         -6.781884   1.000000
      6         -6.328843   1.000000
      7         -4.265130   1.000000
      8         -3.944005   1.000000
      9         -2.896308   1.000000
     10         -2.508014   1.000000
     11         -1.861262   1.000000
     12         -1.612828   1.000000
     13         -1.480342   1.000000
     14         -0.747203   1.000000
     15         -0.270344   1.000000
     16          0.140893   1.000000
     17          0.545925   1.000000
     18          1.872838   1.000000
     19          2.022750   1.000000
     20          2.491764   1.000000
     21          2.919483   1.000000
     22          3.699761   1.000000
     23          3.764495   1.000000
     24          4.225804   1.000000
     25          9.626390   0.000000
     26          9.862455   0.000000
     27         10.681430   0.000000
     28         11.603133   0.000000
     29         12.276539   0.000000
     30         12.643375   0.000000
     31         13.084918   0.000000
     32         13.743417   0.000000
     33         14.318950   0.000000
     34         14.773104   0.000000
     35         15.330907   0.000000
     36         16.038925   0.000000
     37         16.088952   0.000000
     38         16.810005   0.000000
     39         17.070248   0.000000
     40         17.334692   0.000000
     41         17.570328   0.000000
     42         17.857601   0.000000
     43         18.183121   0.000000
     44         18.397077   0.000000
     45         19.465376   0.000000
     46         19.692015   0.000000
     47         19.919492   0.000000
     48         20.443987   0.000000
 
  0.5000000E+00  0.2500000E+00  0.1187787E-14  0.2343750E-01
      1        -14.116993   1.000000
      2        -13.771775   1.000000
      3        -10.869860   1.000000
      4         -7.299397   1.000000
      5         -7.073480   1.000000
      6         -6.179991   1.000000
      7         -4.405547   1.000000
      8         -3.786859   1.000000
      9         -3.054906   1.000000
     10         -2.392847   1.000000
     11         -2.235381   1.000000
     12         -1.601702   1.000000
     13         -1.130715   1.000000
     14         -0.816508   1.000000
     15         -0.076300   1.000000
     16          0.530155   1.000000
     17          0.845177   1.000000
     18          1.327534   1.000000
     19          2.091050   1.000000
     20          2.614642   1.000000
     21          2.772623   1.000000
     22          3.168623   1.000000
     23          4.044757   1.000000
     24          4.408271   1.000000
     25          9.655892   0.000000
     26          9.815846   0.000000
     27         10.625374   0.000000
     28         11.945832   0.000000
     29         12.231458   0.000000
     30         12.524043   0.000000
     31         12.995773   0.000000
     32         13.768136   0.000000
     33         14.423386   0.000000
     34         14.727126   0.000000
     35         15.205940   0.000000
     36         15.518491   0.000000
     37         16.094391   0.000000
     38         16.779457   0.000000
     39         16.898425   0.000000
     40         17.334934   0.000000
     41         17.632439   0.000000
     42         18.032077   0.000000
     43         18.344879   0.000000
     44         18.714518   0.000000
     45         19.070933   0.000000
     46         19.234042   0.000000
     47         19.847490   0.000000
     48         20.386627   0.000000
 
 -0.3750000E+00  0.2500000E+00  0.1356081E-14  0.2343750E-01
      1        -14.276511   1.000000
      2        -13.652712   1.000000
      3        -10.681521   1.000000
      4         -7.278662   1.000000
      5         -7.174320   1.000000
      6         -6.056012   1.000000
      7         -4.476464   1.000000
      8         -3.639442   1.000000
      9         -3.362568   1.000000
     10         -2.962653   1.000000
     11         -1.940104   1.000000
     12         -1.787304   1.000000
     13         -1.374447   1.000000
     14         -0.742956   1.000000
     15          0.051807   1.000000
     16          0.671337   1.000000
     17          1.061039   1.000000
     18          1.427501   1.000000
     19          2.185791   1.000000
     20          2.567281   1.000000
     21          2.783952   1.000000
     22          3.111536   1.000000
     23          4.126085   1.000000
     24          4.302231   1.000000
     25         10.114957   0.000000
     26         10.256036   0.000000
     27         10.796237   0.000000
     28         11.866656   0.000000
     29         12.416306   0.000000
     30         12.833636   0.000000
     31         12.942193   0.000000
     32         13.875356   0.000000
     33         14.375183   0.000000
     34         14.728568   0.000000
     35         14.904773   0.000000
     36         15.485351   0.000000
     37         16.033959   0.000000
     38         16.499803   0.000000
     39         16.656022   0.000000
     40         17.017390   0.000000
     41         17.268796   0.000000
     42         17.501275   0.000000
     43         18.518891   0.000000
     44         18.638754   0.000000
     45         18.777746   0.000000
     46         19.413090   0.000000
     47         19.504544   0.000000
     48         20.089226   0.000000
 
 -0.2500000E+00  0.2500000E+00  0.1294578E-14  0.1171875E-01
      1        -14.401626   1.000000
      2        -13.570579   1.000000
      3        -10.540995   1.000000
      4         -7.229307   1.000000
      5         -6.911862   1.000000
      6         -6.058339   1.000000
      7         -4.286175   1.000000
      8         -4.023224   1.000000