       N       E                     dE             d eps       ncg     rms          ort
DAV:   1    -0.239653482752E+03   -0.23965E+03   -0.26815E+04  3120   0.974E+02
DAV:   2    -0.424966537090E+03   -0.18531E+03   -0.17149E+03  3120   0.189E+02
DAV:   3    -0.431199597154E+03   -0.62331E+01   -0.62089E+01  3120   0.325E+01
DAV:   4    -0.431233685412E+03   -0.34088E-01   -0.34086E-01  3120   0.269E+00
DAV:   5    -0.129091504920E+03    0.30214E+03   -0.43231E+00  3120   0.109E+01
SDA:   6    -0.114335040042E+03    0.14756E+02   -0.43231E+00  3120   0.184E+02 0.000E+00
CGA:   7    -0.119716893805E+03   -0.53819E+01   -0.53966E+01  3120   0.141E+01-0.137E+00
CGA:   8    -0.120476159271E+03   -0.75927E+00   -0.77105E+00  3120   0.460E+00-0.367E-01
CGA:   9    -0.120701847171E+03   -0.22569E+00   -0.22619E+00  3120   0.733E-01-0.219E-02
CGA:  10    -0.120737795068E+03   -0.35948E-01   -0.35962E-01  3120   0.113E-01-0.676E-04
CGA:  11    -0.120742818292E+03   -0.50232E-02   -0.50228E-02  3120   0.183E-02 0.209E-05
CGA:  12    -0.120743760467E+03   -0.94217E-03   -0.93936E-03  3120   0.342E-03 0.109E-04
CGA:  13    -0.120743921739E+03   -0.16127E-03   -0.16054E-03  3120   0.632E-04 0.377E-05
CGA:  14    -0.120743949279E+03   -0.27540E-04   -0.27519E-04  3120   0.113E-04 0.141E-06
CGA:  15    -0.120743954526E+03   -0.52471E-05   -0.53243E-05  3120   0.222E-05-0.423E-06
   1 F= -.12074395E+03 E0= -.12074395E+03  d E =-.385592E-37
