 vasp.6.3.2 27Jun22 (build Jan 18 2024 14:18:24) complex                         
 executed on    LinuxNV_CrayMPICH date 2024.05.26  12:37:27
 running on   24 total cores
 distrk:  each k-point on   24 cores,    1 groups
 distr:  one band on NCORE=   1 cores,   24 groups


--------------------------------------------------------------------------------------------------------


 INCAR:
   SYSTEM = B12BeN2
   ENCUT = 500
   PREC = Accurate
   ISTART = 0
   ICHARG = 2
   LCHARG = .FALSE.
   LWAVE = .TRUE.
   LHFCALC = .TRUE.
   HFSCREEN = 0.2
   AEXX = 0.25
   ALGO = All
   GGA = PE
   ISIF = 3
   NSW = 0
   IBRION = 2
   EDIFFG = -1.0E-2
   EDIFF = 1E-5
   ISMEAR = 0
   SIGMA = 0.01

 POTCAR:    PAW_PBE Be 06Sep2000                  
 POTCAR:    PAW_PBE B 06Sep2000                   
 POTCAR:    PAW_PBE N 08Apr2002                   
 -----------------------------------------------------------------------------
|                                                                             |
|           W    W    AA    RRRRR   N    N  II  N    N   GGGG   !!!           |
|           W    W   A  A   R    R  NN   N  II  NN   N  G    G  !!!           |
|           W    W  A    A  R    R  N N  N  II  N N  N  G       !!!           |
|           W WW W  AAAAAA  RRRRR   N  N N  II  N  N N  G  GGG   !            |
|           WW  WW  A    A  R   R   N   NN  II  N   NN  G    G                |
|           W    W  A    A  R    R  N    N  II  N    N   GGGG   !!!           |
|                                                                             |
|     For optimal performance we recommend to set                             |
|       NCORE = 2 up to number-of-cores-per-socket                            |
|     NCORE specifies how many cores store one orbital (NPAR=cpu/NCORE).      |
|     This setting can greatly improve the performance of VASP for DFT.       |
|     The default, NCORE=1 might be grossly inefficient on modern             |
|     multi-core architectures or massively parallel machines. Do your        |
|     own testing! More info at https://www.vasp.at/wiki/index.php/NCORE      |
|     Unfortunately you need to use the default for GW and RPA                |
|     calculations (for HF NCORE is supported but not extensively tested      |
|     yet).                                                                   |
|                                                                             |
 -----------------------------------------------------------------------------

 POTCAR:    PAW_PBE Be 06Sep2000                  
   SHA256 =  98a2d1e63100a984719ed1fa4aa623d62d7fd86152f07ada9bb3796889d1bbc8 Be/POTCAR             
   COPYR  = (c) Copyright 06Sep2000 Georg Kresse                                                    
   COPYR  = This file is part of the software VASP. Any use, copying, and all other rights are regul
   COPYR  = If you do not have a valid VASP license, you may not use, copy or distribute this file. 
   VRHFIN =Be: s2p0                                                                                 
   LEXCH  = PE                                                                                      
   EATOM  =    27.4793 eV,    2.0197 Ry                                                             
                                                                                                    
   TITEL  = PAW_PBE Be 06Sep2000                                                                    
   LULTRA =        F    use ultrasoft PP ?                                                          
   IUNSCR =        1    unscreen: 0-lin 1-nonlin 2-no                                               
   RPACOR =    1.580    partial core radius                                                         
   POMASS =    9.013; ZVAL   =    2.000    mass and valenz                                          
   RCORE  =    1.900    outmost cutoff radius                                                       
   RWIGS  =    1.880; RWIGS  =    0.995    wigner-seitz radius (au A)                               
   ENMAX  =  247.543; ENMIN  =  185.658 eV                                                          
   ICORE  =        2    local potential                                                             
   LCOR   =        T    correct aug charges                                                         
   LPAW   =        T    paw PP                                                                      
   EAUG   =  318.781                                                                                
   DEXC   =    0.000                                                                                
   RMAX   =    1.944    core radius for proj-oper                                                   
   RAUG   =    1.300    factor for augmentation sphere                                              
   RDEP   =    2.003    radius for radial grids                                                     
   RDEPT  =    1.802    core radius for aug-charge                                                  
                                                                                                    
   Atomic configuration                                                                             
    4 entries                                                                                       
     n  l   j            E        occ.                                                              
     1  0  0.50      -106.2287   2.0000                                                             
     2  0  0.50        -5.6162   1.9900                                                             
     2  1  0.50        -2.0244   0.0100                                                             
     3  2  1.50        -1.3606   0.0000                                                             
   Description                                                                                      
     l       E           TYP  RCUT    TYP  RCUT                                                     
     0     -5.6161739     23  1.900                                                                 
     0     27.2116520     23  1.900                                                                 
     1     -2.0243505     23  1.900                                                                 
     1     27.2116520     23  1.900                                                                 
     2     -1.3605826     15  1.500                                                                 
  local pseudopotential read in
  partial core-charges read in
  partial kinetic energy density read in
  atomic valenz-charges read in
  non local Contribution for L=            0  read in
    real space projection operators read in
  non local Contribution for L=            0  read in
    real space projection operators read in
  non local Contribution for L=            1  read in
    real space projection operators read in
  non local Contribution for L=            1  read in
    real space projection operators read in
    PAW grid and wavefunctions read in
 
   number of l-projection  operators is LMAX  =            4
   number of lm-projection operators is LMMAX =            8
 
 POTCAR:    PAW_PBE B 06Sep2000                   
   SHA256 =  a32ced30f5ae56fd4d10b4325ff17eb3e4e38ee0f4288bc219fb012fddfa6e97 B/POTCAR              
   COPYR  = (c) Copyright 06Sep2000 Georg Kresse                                                    
   COPYR  = This file is part of the software VASP. Any use, copying, and all other rights are regul
   COPYR  = If you do not have a valid VASP license, you may not use, copy or distribute this file. 
   VRHFIN =B: s2p1                                                                                  
   LEXCH  = PE                                                                                      
   EATOM  =    71.1703 eV,    5.2309 Ry                                                             
                                                                                                    
   TITEL  = PAW_PBE B 06Sep2000                                                                     
   LULTRA =        F    use ultrasoft PP ?                                                          
   IUNSCR =        1    unscreen: 0-lin 1-nonlin 2-no                                               
   RPACOR =    1.200    partial core radius                                                         
   POMASS =   10.811; ZVAL   =    3.000    mass and valenz                                          
   RCORE  =    1.700    outmost cutoff radius                                                       
   RWIGS  =    1.710; RWIGS  =    0.905    wigner-seitz radius (au A)                               
   ENMAX  =  318.614; ENMIN  =  238.960 eV                                                          
   ICORE  =        2    local potential                                                             
   LCOR   =        T    correct aug charges                                                         
   LPAW   =        T    paw PP                                                                      
   EAUG   =  535.514                                                                                
   DEXC   =    0.000                                                                                
   RMAX   =    1.732    core radius for proj-oper                                                   
   RAUG   =    1.300    factor for augmentation sphere                                              
   RDEP   =    1.757    radius for radial grids                                                     
   RDEPT  =    1.436    core radius for aug-charge                                                  
                                                                                                    
   Atomic configuration                                                                             
    4 entries                                                                                       
     n  l   j            E        occ.                                                              
     1  0  0.50      -180.5896   2.0000                                                             
     2  0  0.50        -9.4431   2.0000                                                             
     2  1  0.50        -3.6068   1.0000                                                             
     3  2  1.50        -4.0817   0.0000                                                             
   Description                                                                                      
     l       E           TYP  RCUT    TYP  RCUT                                                     
     0     -9.4430752     23  1.500                                                                 
     0      0.8675899     23  1.500                                                                 
     1     -3.6067955     23  1.700                                                                 
     1      6.1086146     23  1.700                                                                 
     2     -4.0817478      7  1.700                                                                 
  local pseudopotential read in
  partial core-charges read in
  partial kinetic energy density read in
  atomic valenz-charges read in
  non local Contribution for L=            0  read in
    real space projection operators read in
  non local Contribution for L=            0  read in
    real space projection operators read in
  non local Contribution for L=            1  read in
    real space projection operators read in
  non local Contribution for L=            1  read in
    real space projection operators read in
    PAW grid and wavefunctions read in
 
   number of l-projection  operators is LMAX  =            4
   number of lm-projection operators is LMMAX =            8
 
 POTCAR:    PAW_PBE N 08Apr2002                   
   SHA256 =  e053789ff3a61a86a1b75d8a110fcc91f86041011e7b0817c7c99e4e8a6349d7 N/POTCAR              
   COPYR  = (c) Copyright 08Apr2002 Georg Kresse                                                    
   COPYR  = This file is part of the software VASP. Any use, copying, and all other rights are regul
   COPYR  = If you do not have a valid VASP license, you may not use, copy or distribute this file. 
   VRHFIN =N: s2p3                                                                                  
   LEXCH  = PE                                                                                      
   EATOM  =   264.5486 eV,   19.4438 Ry                                                             
                                                                                                    
   TITEL  = PAW_PBE N 08Apr2002                                                                     
   LULTRA =        F    use ultrasoft PP ?                                                          
   IUNSCR =        1    unscreen: 0-lin 1-nonlin 2-no                                               
   RPACOR =    1.200    partial core radius                                                         
   POMASS =   14.001; ZVAL   =    5.000    mass and valenz                                          
   RCORE  =    1.500    outmost cutoff radius                                                       
   RWIGS  =    1.400; RWIGS  =    0.741    wigner-seitz radius (au A)                               
   ENMAX  =  400.000; ENMIN  =  300.000 eV                                                          
   ICORE  =        2    local potential                                                             
   LCOR   =        T    correct aug charges                                                         
   LPAW   =        T    paw PP                                                                      
   EAUG   =  627.112                                                                                
   DEXC   =    0.000                                                                                
   RMAX   =    1.529    core radius for proj-oper                                                   
   RAUG   =    1.300    factor for augmentation sphere                                              
   RDEP   =    1.514    radius for radial grids                                                     
   RDEPT  =    1.338    core radius for aug-charge                                                  
                                                                                                    
   Atomic configuration                                                                             
    4 entries                                                                                       
     n  l   j            E        occ.                                                              
     1  0  0.50      -384.7179   2.0000                                                             
     2  0  0.50       -18.5828   2.0000                                                             
     2  1  0.50        -7.0898   3.0000                                                             
     3  2  1.50        -6.8029   0.0000                                                             
   Description                                                                                      
     l       E           TYP  RCUT    TYP  RCUT                                                     
     0    -18.5828119     23  1.200                                                                 
     0    -13.5018863     23  1.200                                                                 
     1     -7.0897853     23  1.500                                                                 
     1      9.5240782     23  1.500                                                                 
     2     -6.8029130      7  1.500                                                                 
  local pseudopotential read in
  partial core-charges read in
  partial kinetic energy density read in
  atomic valenz-charges read in
  non local Contribution for L=            0  read in
    real space projection operators read in
  non local Contribution for L=            0  read in
    real space projection operators read in
  non local Contribution for L=            1  read in
    real space projection operators read in
  non local Contribution for L=            1  read in
    real space projection operators read in
    PAW grid and wavefunctions read in
 
   number of l-projection  operators is LMAX  =            4
   number of lm-projection operators is LMMAX =            8
 
  PAW_PBE Be 06Sep2000                  :
 energy of atom  1       EATOM=  -27.4793
 kinetic energy error for atom=    0.0001 (will be added to EATOM!!)
  PAW_PBE B 06Sep2000                   :
 energy of atom  2       EATOM=  -71.1703
 kinetic energy error for atom=    0.0012 (will be added to EATOM!!)
  PAW_PBE N 08Apr2002                   :
 energy of atom  3       EATOM= -264.5486
 kinetic energy error for atom=    0.0138 (will be added to EATOM!!)
 
 
 POSCAR: B12BeN2.cif
  positions in direct lattice
  velocities in cartesian coordinates
 exchange correlation table for  LEXCH =        8
   RHO(1)=    0.500       N(1)  =     2000
   RHO(2)=  100.500       N(2)  =     4000
 


--------------------------------------------------------------------------------------------------------


 ion  position               nearest neighbor table
   1  0.500  0.500  0.500-  14 1.54  15 1.54
   2  0.669  0.003  0.003-  13 1.73   7 1.79   3 1.79  11 1.80   5 1.81   9 1.81
   3  0.997  0.331  0.003-  12 1.73   7 1.79   2 1.79  10 1.80   4 1.81   9 1.81
   4  0.324  0.197  0.197-  14 1.53  10 1.74   6 1.74  13 1.80   3 1.81   7 1.81
   5  0.803  0.676  0.197-  14 1.53  11 1.74   6 1.74  12 1.80   7 1.81   2 1.81
   6  0.197  0.803  0.324-  15 1.53   4 1.74   5 1.74   7 1.80  12 1.81  13 1.81
   7  0.997  0.003  0.331-   8 1.73   3 1.79   2 1.79   6 1.80   5 1.81   4 1.81
   8  0.003  0.997  0.669-   7 1.73  13 1.79  12 1.79   9 1.80  11 1.81  10 1.81
   9  0.803  0.197  0.676-  14 1.53  10 1.74  11 1.74   8 1.80   2 1.81   3 1.81
  10  0.197  0.324  0.803-  15 1.53   4 1.74   9 1.74   3 1.80  13 1.81   8 1.81
  11  0.676  0.803  0.803-  15 1.53   5 1.74   9 1.74   2 1.80   8 1.81  12 1.81
  12  0.003  0.669  0.997-   3 1.73   8 1.79  13 1.79   5 1.80  11 1.81   6 1.81
  13  0.331  0.997  0.997-   2 1.73   8 1.79  12 1.79   4 1.80  10 1.81   6 1.81
  14  0.623  0.377  0.377-   9 1.53   5 1.53   4 1.53   1 1.54
  15  0.377  0.623  0.623-   6 1.53  11 1.53  10 1.53   1 1.54
 
  LATTYP: Found a trigonal (rhomboedric) cell.
 ALAT       =     5.2112899275
 COS(alpha) =     0.4521624842
  
  Lattice vectors:
  
 A1 = (  -5.2112894376,   0.0018319752,   0.0013229265)
 A2 = (  -2.3547171185,   1.4474337186,   4.4178871299)
 A3 = (  -2.3547214094,   4.6489598882,   0.0013229265)


Analysis of symmetry for initial positions (statically):
=====================================================================
 Subroutine PRICEL returns:
 Original cell was already a primitive cell.
 

 Routine SETGRP: Setting up the symmetry group for a 
 trigonal (rhombohedral) supercell.


 Subroutine GETGRP returns: Found 12 space group operations
 (whereof 12 operations were pure point group operations)
 out of a pool of 12 trial point group operations.


The static configuration has the point symmetry D_3d.


Analysis of symmetry for dynamics (positions and initial velocities):
=====================================================================
 Subroutine PRICEL returns:
 Original cell was already a primitive cell.
 

 Routine SETGRP: Setting up the symmetry group for a 
 trigonal (rhombohedral) supercell.


 Subroutine GETGRP returns: Found 12 space group operations
 (whereof 12 operations were pure point group operations)
 out of a pool of 12 trial point group operations.


The dynamic configuration has the point symmetry D_3d.


 Subroutine INISYM returns: Found 12 space group operations
 (whereof 12 operations are pure point group operations),
 and found     1 'primitive' translations


----------------------------------------------------------------------------------------

                                     Primitive cell                                     

  volume of cell :     106.9935

  direct lattice vectors                    reciprocal lattice vectors
     5.211289438 -0.001831975 -0.001322927     0.191943144  0.097200111  0.070459267
    -2.354721409  4.648959888  0.001322927     0.000057748  0.215151177 -0.070459267
    -2.354717119  1.447433719  4.417887130     0.000057460 -0.000035320  0.226394744

  length of vectors
     5.211289927  5.211289927  5.211284273     0.226394657  0.226394657  0.226394754

  position of ions in fractional coordinates (direct lattice)
     0.499999938  0.499999938  0.500000000
     0.669343160  0.003255530  0.003255088
     0.996745697  0.330658076  0.003255352
     0.323960958  0.197328566  0.197327311
     0.802673069  0.676040595  0.197327434
     0.197328166  0.802673479  0.323960872
     0.996745119  0.003256033  0.330657275
     0.003256033  0.996745119  0.669342725
     0.802673479  0.197328166  0.676039128
     0.197328566  0.323960958  0.802672689
     0.676040595  0.802673069  0.802672566
     0.003255530  0.669343160  0.996744912
     0.330658076  0.996745697  0.996744648
     0.623427178  0.376574435  0.376575646
     0.376574435  0.623427178  0.623424354

  ion indices of the primitive-cell ions
   primitive index   ion index
                 1           1
                 2           2
                 3           3
                 4           4
                 5           5
                 6           6
                 7           7
                 8           8
                 9           9
                10          10
                11          11
                12          12
                13          13
                14          14
                15          15

----------------------------------------------------------------------------------------

 
 
 KPOINTS: Auto                                    

Automatic generation of k-mesh.
 Grid dimensions read from file:
 generate k-points for:    8    8    8

 Generating k-lattice:

  Cartesian coordinates                     Fractional coordinates (reciprocal lattice)
     0.023992893  0.012150014  0.008807408     0.125000000 -0.000000000  0.000000000
     0.000007218  0.026893897 -0.008807408    -0.000000000  0.125000000 -0.000000000
     0.000007182 -0.000004415  0.028299343     0.000000000 -0.000000000  0.125000000

  Length of vectors
     0.028299332  0.028299332  0.028299344

  Shift w.r.t. Gamma in fractional coordinates (k-lattice)
     0.000000000  0.000000000  0.000000000

 
 Subroutine IBZKPT returns following result:
 ===========================================
 
 Found     65 irreducible k-points:
 
 Following reciprocal coordinates:
            Coordinates               Weight
  0.000000  0.000000  0.000000      1.000000
  0.125000  0.000000  0.000000      6.000000
  0.250000  0.000000  0.000000      6.000000
  0.375000  0.000000  0.000000      6.000000
  0.500000  0.000000  0.000000      3.000000
  0.125000  0.125000  0.000000      6.000000
  0.250000  0.125000  0.000000     12.000000
  0.375000  0.125000  0.000000     12.000000
  0.500000  0.125000  0.000000     12.000000
 -0.375000  0.125000  0.000000     12.000000
 -0.250000  0.125000  0.000000     12.000000
 -0.125000  0.125000  0.000000      6.000000
  0.250000  0.250000  0.000000      6.000000
  0.375000  0.250000  0.000000     12.000000
  0.500000  0.250000  0.000000     12.000000
 -0.375000  0.250000  0.000000     12.000000
 -0.250000  0.250000  0.000000      6.000000
  0.375000  0.375000  0.000000      6.000000
  0.500000  0.375000  0.000000     12.000000
 -0.375000  0.375000  0.000000      6.000000
  0.500000  0.500000  0.000000      3.000000
  0.125000  0.125000  0.125000      6.000000
  0.250000  0.125000  0.125000      6.000000
  0.375000  0.125000  0.125000      6.000000
  0.500000  0.125000  0.125000      6.000000
 -0.375000  0.125000  0.125000      6.000000
 -0.250000  0.125000  0.125000      6.000000
 -0.125000  0.125000  0.125000      2.000000
  0.125000  0.250000  0.125000     12.000000
  0.250000  0.250000  0.125000     12.000000
  0.375000  0.250000  0.125000     12.000000
  0.500000  0.250000  0.125000     12.000000
 -0.375000  0.250000  0.125000     12.000000
 -0.250000  0.250000  0.125000      6.000000
  0.125000  0.375000  0.125000     12.000000
  0.250000  0.375000  0.125000     12.000000
  0.375000  0.375000  0.125000     12.000000
  0.500000  0.375000  0.125000     12.000000
 -0.375000  0.375000  0.125000      6.000000
  0.125000  0.500000  0.125000      6.000000
  0.250000  0.500000  0.125000     12.000000
  0.375000  0.500000  0.125000     12.000000
  0.500000  0.500000  0.125000      6.000000
  0.250000 -0.375000  0.125000     12.000000
  0.375000 -0.375000  0.125000      6.000000
  0.250000 -0.250000  0.125000      6.000000
  0.250000  0.250000  0.250000      6.000000
  0.375000  0.250000  0.250000      6.000000
  0.500000  0.250000  0.250000      6.000000
 -0.375000  0.250000  0.250000      6.000000
 -0.250000  0.250000  0.250000      2.000000
  0.250000  0.375000  0.250000     12.000000
  0.375000  0.375000  0.250000     12.000000
  0.500000  0.375000  0.250000     12.000000
 -0.375000  0.375000  0.250000      6.000000
  0.250000  0.500000  0.250000      6.000000
  0.375000  0.500000  0.250000     12.000000
  0.500000  0.500000  0.250000      6.000000
  0.375000 -0.375000  0.250000      6.000000
  0.375000  0.375000  0.375000      6.000000
  0.500000  0.375000  0.375000      6.000000
 -0.375000  0.375000  0.375000      2.000000
  0.375000  0.500000  0.375000      6.000000
  0.500000  0.500000  0.375000      6.000000
  0.500000  0.500000  0.500000      1.000000
 
 Following cartesian coordinates:
            Coordinates               Weight
  0.000000  0.000000  0.000000      1.000000
  0.023993  0.012150  0.008807      6.000000
  0.047986  0.024300  0.017615      6.000000
  0.071979  0.036450  0.026422      6.000000
  0.095972  0.048600  0.035230      3.000000
  0.024000  0.039044  0.000000      6.000000
  0.047993  0.051194  0.008807     12.000000
  0.071986  0.063344  0.017615     12.000000
  0.095979  0.075494  0.026422     12.000000
 -0.071971 -0.009556 -0.035230     12.000000
 -0.047979  0.002594 -0.026422     12.000000
 -0.023986  0.014744 -0.017615      6.000000
  0.048000  0.078088  0.000000      6.000000
  0.071993  0.090238  0.008807     12.000000
  0.095986  0.102388  0.017615     12.000000
 -0.071964  0.017338 -0.044037     12.000000
 -0.047971  0.029488 -0.035230      6.000000
  0.072000  0.117132  0.000000      6.000000
  0.095993  0.129282  0.008807     12.000000
 -0.071957  0.044232 -0.052844      6.000000
  0.096000  0.156176  0.000000      3.000000
  0.024007  0.039039  0.028299      6.000000
  0.048000  0.051190  0.037107      6.000000
  0.071993  0.063340  0.045914      6.000000
  0.095986  0.075490  0.054722      6.000000
 -0.071964 -0.009561 -0.006930      6.000000
 -0.047971  0.002589  0.001877      6.000000
 -0.023978  0.014739  0.010685      2.000000
  0.024015  0.065933  0.019492     12.000000
  0.048007  0.078083  0.028299     12.000000
  0.072000  0.090233  0.037107     12.000000
  0.095993  0.102383  0.045914     12.000000
 -0.071957  0.017333 -0.015738     12.000000
 -0.047964  0.029483 -0.006930      6.000000
  0.024022  0.092827  0.010685     12.000000
  0.048015  0.104977  0.019492     12.000000
  0.072008  0.117127  0.028299     12.000000
  0.096000  0.129277  0.037107     12.000000
 -0.071950  0.044227 -0.024545      6.000000
  0.024029  0.119721  0.001877      6.000000
  0.048022  0.131871  0.010685     12.000000
  0.072015  0.144021  0.019492     12.000000
  0.096008  0.156171  0.028299      6.000000
  0.047971 -0.056386  0.072336     12.000000
  0.071964 -0.044236  0.081144      6.000000
  0.047979 -0.029492  0.063529      6.000000
  0.048015  0.078079  0.056599      6.000000
  0.072007  0.090229  0.065406      6.000000
  0.096000  0.102379  0.074214      6.000000
 -0.071950  0.017329  0.012562      6.000000
 -0.047957  0.029479  0.021369      2.000000
  0.048022  0.104973  0.047791     12.000000
  0.072015  0.117123  0.056599     12.000000
  0.096008  0.129273  0.065406     12.000000
 -0.071943  0.044223  0.003754      6.000000
  0.048029  0.131867  0.038984      6.000000
  0.072022  0.144017  0.047791     12.000000
  0.096015  0.156167  0.056599      6.000000
  0.071971 -0.044240  0.109443      6.000000
  0.072022  0.117118  0.084898      6.000000
  0.096015  0.129269  0.093705      6.000000
 -0.071935  0.044218  0.032054      2.000000
  0.072029  0.144012  0.076091      6.000000
  0.096022  0.156162  0.084898      6.000000
  0.096029  0.156158  0.113197      1.000000
 
 
 Subroutine IBZKPT_HF returns following result:
 ==============================================
 
 Found    512 k-points in 1st BZ
 the following    512 k-points will be used (e.g. in the exchange kernel)
 Following reciprocal coordinates:   # in IRBZ
  0.000000  0.000000  0.000000    0.00195313   1 t-inv F
  0.125000  0.000000  0.000000    0.00195313   2 t-inv F
  0.250000  0.000000  0.000000    0.00195313   3 t-inv F
  0.375000  0.000000  0.000000    0.00195313   4 t-inv F
  0.500000  0.000000  0.000000    0.00195313   5 t-inv F
  0.125000  0.125000  0.000000    0.00195313   6 t-inv F
  0.250000  0.125000  0.000000    0.00195313   7 t-inv F
  0.375000  0.125000  0.000000    0.00195313   8 t-inv F
  0.500000  0.125000  0.000000    0.00195313   9 t-inv F
 -0.375000  0.125000  0.000000    0.00195313  10 t-inv F
 -0.250000  0.125000  0.000000    0.00195313  11 t-inv F
 -0.125000  0.125000  0.000000    0.00195313  12 t-inv F
  0.250000  0.250000  0.000000    0.00195313  13 t-inv F
  0.375000  0.250000  0.000000    0.00195313  14 t-inv F
  0.500000  0.250000  0.000000    0.00195313  15 t-inv F
 -0.375000  0.250000  0.000000    0.00195313  16 t-inv F
 -0.250000  0.250000  0.000000    0.00195313  17 t-inv F
  0.375000  0.375000  0.000000    0.00195313  18 t-inv F
  0.500000  0.375000  0.000000    0.00195313  19 t-inv F
 -0.375000  0.375000  0.000000    0.00195313  20 t-inv F
  0.500000  0.500000  0.000000    0.00195313  21 t-inv F
  0.125000  0.125000  0.125000    0.00195313  22 t-inv F
  0.250000  0.125000  0.125000    0.00195313  23 t-inv F
  0.375000  0.125000  0.125000    0.00195313  24 t-inv F
  0.500000  0.125000  0.125000    0.00195313  25 t-inv F
 -0.375000  0.125000  0.125000    0.00195313  26 t-inv F
 -0.250000  0.125000  0.125000    0.00195313  27 t-inv F
 -0.125000  0.125000  0.125000    0.00195313  28 t-inv F
  0.125000  0.250000  0.125000    0.00195313  29 t-inv F
  0.250000  0.250000  0.125000    0.00195313  30 t-inv F
  0.375000  0.250000  0.125000    0.00195313  31 t-inv F
  0.500000  0.250000  0.125000    0.00195313  32 t-inv F
 -0.375000  0.250000  0.125000    0.00195313  33 t-inv F
 -0.250000  0.250000  0.125000    0.00195313  34 t-inv F
  0.125000  0.375000  0.125000    0.00195313  35 t-inv F
  0.250000  0.375000  0.125000    0.00195313  36 t-inv F
  0.375000  0.375000  0.125000    0.00195313  37 t-inv F
  0.500000  0.375000  0.125000    0.00195313  38 t-inv F
 -0.375000  0.375000  0.125000    0.00195313  39 t-inv F
  0.125000  0.500000  0.125000    0.00195313  40 t-inv F
  0.250000  0.500000  0.125000    0.00195313  41 t-inv F
  0.375000  0.500000  0.125000    0.00195313  42 t-inv F
  0.500000  0.500000  0.125000    0.00195313  43 t-inv F
  0.250000 -0.375000  0.125000    0.00195313  44 t-inv F
  0.375000 -0.375000  0.125000    0.00195313  45 t-inv F
  0.250000 -0.250000  0.125000    0.00195313  46 t-inv F
  0.250000  0.250000  0.250000    0.00195313  47 t-inv F
  0.375000  0.250000  0.250000    0.00195313  48 t-inv F
  0.500000  0.250000  0.250000    0.00195313  49 t-inv F
 -0.375000  0.250000  0.250000    0.00195313  50 t-inv F
 -0.250000  0.250000  0.250000    0.00195313  51 t-inv F
  0.250000  0.375000  0.250000    0.00195313  52 t-inv F
  0.375000  0.375000  0.250000    0.00195313  53 t-inv F
  0.500000  0.375000  0.250000    0.00195313  54 t-inv F
 -0.375000  0.375000  0.250000    0.00195313  55 t-inv F
  0.250000  0.500000  0.250000    0.00195313  56 t-inv F
  0.375000  0.500000  0.250000    0.00195313  57 t-inv F
  0.500000  0.500000  0.250000    0.00195313  58 t-inv F
  0.375000 -0.375000  0.250000    0.00195313  59 t-inv F
  0.375000  0.375000  0.375000    0.00195313  60 t-inv F
  0.500000  0.375000  0.375000    0.00195313  61 t-inv F
 -0.375000  0.375000  0.375000    0.00195313  62 t-inv F
  0.375000  0.500000  0.375000    0.00195313  63 t-inv F
  0.500000  0.500000  0.375000    0.00195313  64 t-inv F
  0.500000  0.500000  0.500000    0.00195313  65 t-inv F
 -0.125000 -0.000000 -0.000000    0.00195313   2 t-inv F
 -0.000000  0.000000 -0.125000    0.00195313   2 t-inv F
  0.000000 -0.000000  0.125000    0.00195313   2 t-inv F
 -0.000000 -0.125000  0.000000    0.00195313   2 t-inv F
  0.000000  0.125000 -0.000000    0.00195313   2 t-inv F
 -0.250000 -0.000000 -0.000000    0.00195313   3 t-inv F
 -0.000000  0.000000 -0.250000    0.00195313   3 t-inv F
  0.000000 -0.000000  0.250000    0.00195313   3 t-inv F
 -0.000000 -0.250000  0.000000    0.00195313   3 t-inv F
  0.000000  0.250000 -0.000000    0.00195313   3 t-inv F
 -0.375000 -0.000000 -0.000000    0.00195313   4 t-inv F
 -0.000000  0.000000 -0.375000    0.00195313   4 t-inv F
  0.000000 -0.000000  0.375000    0.00195313   4 t-inv F
 -0.000000 -0.375000  0.000000    0.00195313   4 t-inv F
  0.000000  0.375000 -0.000000    0.00195313   4 t-inv F
 -0.000000  0.000000 -0.500000    0.00195313   5 t-inv F
 -0.000000 -0.500000  0.000000    0.00195313   5 t-inv F
 -0.125000 -0.125000 -0.000000    0.00195313   6 t-inv F
 -0.125000 -0.000000 -0.125000    0.00195313   6 t-inv F
  0.125000  0.000000  0.125000    0.00195313   6 t-inv F
  0.000000 -0.125000  0.125000    0.00195313   6 t-inv F
 -0.000000  0.125000 -0.125000    0.00195313   6 t-inv F
 -0.250000 -0.125000 -0.000000    0.00195313   7 t-inv F
 -0.250000 -0.000000 -0.125000    0.00195313   7 t-inv F
  0.250000  0.000000  0.125000    0.00195313   7 t-inv F
 -0.125000  0.000000 -0.250000    0.00195313   7 t-inv F
  0.125000 -0.000000  0.250000    0.00195313   7 t-inv F
  0.000000 -0.125000  0.250000    0.00195313   7 t-inv F
 -0.000000  0.125000 -0.250000    0.00195313   7 t-inv F
 -0.000000 -0.250000  0.125000    0.00195313   7 t-inv F
  0.000000  0.250000 -0.125000    0.00195313   7 t-inv F
  0.125000  0.250000 -0.000000    0.00195313   7 t-inv F
 -0.125000 -0.250000  0.000000    0.00195313   7 t-inv F
 -0.375000 -0.125000 -0.000000    0.00195313   8 t-inv F
 -0.375000 -0.000000 -0.125000    0.00195313   8 t-inv F
  0.375000  0.000000  0.125000    0.00195313   8 t-inv F
 -0.125000  0.000000 -0.375000    0.00195313   8 t-inv F
  0.125000 -0.000000  0.375000    0.00195313   8 t-inv F
  0.000000 -0.125000  0.375000    0.00195313   8 t-inv F
 -0.000000  0.125000 -0.375000    0.00195313   8 t-inv F
 -0.000000 -0.375000  0.125000    0.00195313   8 t-inv F
  0.000000  0.375000 -0.125000    0.00195313   8 t-inv F
  0.125000  0.375000 -0.000000    0.00195313   8 t-inv F
 -0.125000 -0.375000  0.000000    0.00195313   8 t-inv F
 -0.500000 -0.125000 -0.000000    0.00195313   9 t-inv F
 -0.500000 -0.000000 -0.125000    0.00195313   9 t-inv F
  0.500000  0.000000  0.125000    0.00195313   9 t-inv F
 -0.125000  0.000000 -0.500000    0.00195313   9 t-inv F
  0.125000 -0.000000  0.500000    0.00195313   9 t-inv F
  0.000000 -0.125000  0.500000    0.00195313   9 t-inv F
 -0.000000  0.125000 -0.500000    0.00195313   9 t-inv F
 -0.000000 -0.500000  0.125000    0.00195313   9 t-inv F
  0.000000  0.500000 -0.125000    0.00195313   9 t-inv F
  0.125000  0.500000 -0.000000    0.00195313   9 t-inv F
 -0.125000 -0.500000  0.000000    0.00195313   9 t-inv F
  0.375000 -0.125000 -0.000000    0.00195313  10 t-inv F
  0.375000 -0.000000 -0.125000    0.00195313  10 t-inv F
 -0.375000  0.000000  0.125000    0.00195313  10 t-inv F
 -0.125000  0.000000  0.375000    0.00195313  10 t-inv F
  0.125000 -0.000000 -0.375000    0.00195313  10 t-inv F
  0.000000 -0.125000 -0.375000    0.00195313  10 t-inv F
 -0.000000  0.125000  0.375000    0.00195313  10 t-inv F
 -0.000000  0.375000  0.125000    0.00195313  10 t-inv F
  0.000000 -0.375000 -0.125000    0.00195313  10 t-inv F
  0.125000 -0.375000 -0.000000    0.00195313  10 t-inv F
 -0.125000  0.375000  0.000000    0.00195313  10 t-inv F
  0.250000 -0.125000 -0.000000    0.00195313  11 t-inv F
  0.250000 -0.000000 -0.125000    0.00195313  11 t-inv F
 -0.250000  0.000000  0.125000    0.00195313  11 t-inv F
 -0.125000  0.000000  0.250000    0.00195313  11 t-inv F
  0.125000 -0.000000 -0.250000    0.00195313  11 t-inv F
  0.000000 -0.125000 -0.250000    0.00195313  11 t-inv F
 -0.000000  0.125000  0.250000    0.00195313  11 t-inv F
 -0.000000  0.250000  0.125000    0.00195313  11 t-inv F
  0.000000 -0.250000 -0.125000    0.00195313  11 t-inv F
  0.125000 -0.250000 -0.000000    0.00195313  11 t-inv F
 -0.125000  0.250000  0.000000    0.00195313  11 t-inv F
  0.125000 -0.125000 -0.000000    0.00195313  12 t-inv F
  0.125000 -0.000000 -0.125000    0.00195313  12 t-inv F
 -0.125000  0.000000  0.125000    0.00195313  12 t-inv F
  0.000000 -0.125000 -0.125000    0.00195313  12 t-inv F
 -0.000000  0.125000  0.125000    0.00195313  12 t-inv F
 -0.250000 -0.250000 -0.000000    0.00195313  13 t-inv F
 -0.250000 -0.000000 -0.250000    0.00195313  13 t-inv F
  0.250000  0.000000  0.250000    0.00195313  13 t-inv F
  0.000000 -0.250000  0.250000    0.00195313  13 t-inv F
 -0.000000  0.250000 -0.250000    0.00195313  13 t-inv F
 -0.375000 -0.250000 -0.000000    0.00195313  14 t-inv F
 -0.375000 -0.000000 -0.250000    0.00195313  14 t-inv F
  0.375000  0.000000  0.250000    0.00195313  14 t-inv F
 -0.250000  0.000000 -0.375000    0.00195313  14 t-inv F
  0.250000 -0.000000  0.375000    0.00195313  14 t-inv F
  0.000000 -0.250000  0.375000    0.00195313  14 t-inv F
 -0.000000  0.250000 -0.375000    0.00195313  14 t-inv F
 -0.000000 -0.375000  0.250000    0.00195313  14 t-inv F
  0.000000  0.375000 -0.250000    0.00195313  14 t-inv F
  0.250000  0.375000 -0.000000    0.00195313  14 t-inv F
 -0.250000 -0.375000  0.000000    0.00195313  14 t-inv F
 -0.500000 -0.250000 -0.000000    0.00195313  15 t-inv F
 -0.500000 -0.000000 -0.250000    0.00195313  15 t-inv F
  0.500000  0.000000  0.250000    0.00195313  15 t-inv F
 -0.250000  0.000000 -0.500000    0.00195313  15 t-inv F
  0.250000 -0.000000  0.500000    0.00195313  15 t-inv F
  0.000000 -0.250000  0.500000    0.00195313  15 t-inv F
 -0.000000  0.250000 -0.500000    0.00195313  15 t-inv F
 -0.000000 -0.500000  0.250000    0.00195313  15 t-inv F
  0.000000  0.500000 -0.250000    0.00195313  15 t-inv F
  0.250000  0.500000 -0.000000    0.00195313  15 t-inv F
 -0.250000 -0.500000  0.000000    0.00195313  15 t-inv F
  0.375000 -0.250000 -0.000000    0.00195313  16 t-inv F
  0.375000 -0.000000 -0.250000    0.00195313  16 t-inv F
 -0.375000  0.000000  0.250000    0.00195313  16 t-inv F
 -0.250000  0.000000  0.375000    0.00195313  16 t-inv F
  0.250000 -0.000000 -0.375000    0.00195313  16 t-inv F
  0.000000 -0.250000 -0.375000    0.00195313  16 t-inv F
 -0.000000  0.250000  0.375000    0.00195313  16 t-inv F
 -0.000000  0.375000  0.250000    0.00195313  16 t-inv F
  0.000000 -0.375000 -0.250000    0.00195313  16 t-inv F
  0.250000 -0.375000 -0.000000    0.00195313  16 t-inv F
 -0.250000  0.375000  0.000000    0.00195313  16 t-inv F
  0.250000 -0.250000 -0.000000    0.00195313  17 t-inv F
  0.250000 -0.000000 -0.250000    0.00195313  17 t-inv F
 -0.250000  0.000000  0.250000    0.00195313  17 t-inv F
  0.000000 -0.250000 -0.250000    0.00195313  17 t-inv F
 -0.000000  0.250000  0.250000    0.00195313  17 t-inv F
 -0.375000 -0.375000 -0.000000    0.00195313  18 t-inv F
 -0.375000 -0.000000 -0.375000    0.00195313  18 t-inv F
  0.375000  0.000000  0.375000    0.00195313  18 t-inv F
  0.000000 -0.375000  0.375000    0.00195313  18 t-inv F
 -0.000000  0.375000 -0.375000    0.00195313  18 t-inv F
 -0.500000 -0.375000 -0.000000    0.00195313  19 t-inv F
 -0.500000 -0.000000 -0.375000    0.00195313  19 t-inv F
  0.500000  0.000000  0.375000    0.00195313  19 t-inv F
 -0.375000  0.000000 -0.500000    0.00195313  19 t-inv F
  0.375000 -0.000000  0.500000    0.00195313  19 t-inv F
  0.000000 -0.375000  0.500000    0.00195313  19 t-inv F
 -0.000000  0.375000 -0.500000    0.00195313  19 t-inv F
 -0.000000 -0.500000  0.375000    0.00195313  19 t-inv F
  0.000000  0.500000 -0.375000    0.00195313  19 t-inv F
  0.375000  0.500000 -0.000000    0.00195313  19 t-inv F
 -0.375000 -0.500000  0.000000    0.00195313  19 t-inv F
  0.375000 -0.375000 -0.000000    0.00195313  20 t-inv F
  0.375000 -0.000000 -0.375000    0.00195313  20 t-inv F
 -0.375000  0.000000  0.375000    0.00195313  20 t-inv F
  0.000000 -0.375000 -0.375000    0.00195313  20 t-inv F
 -0.000000  0.375000  0.375000    0.00195313  20 t-inv F
 -0.500000 -0.000000 -0.500000    0.00195313  21 t-inv F
  0.000000 -0.500000  0.500000    0.00195313  21 t-inv F
 -0.125000 -0.125000 -0.125000    0.00195313  22 t-inv F
 -0.125000  0.125000 -0.125000    0.00195313  22 t-inv F
  0.125000 -0.125000  0.125000    0.00195313  22 t-inv F
 -0.125000 -0.125000  0.125000    0.00195313  22 t-inv F
  0.125000  0.125000 -0.125000    0.00195313  22 t-inv F
 -0.250000 -0.125000 -0.125000    0.00195313  23 t-inv F
 -0.125000  0.125000 -0.250000    0.00195313  23 t-inv F
  0.125000 -0.125000  0.250000    0.00195313  23 t-inv F
 -0.125000 -0.250000  0.125000    0.00195313  23 t-inv F
  0.125000  0.250000 -0.125000    0.00195313  23 t-inv F
 -0.375000 -0.125000 -0.125000    0.00195313  24 t-inv F
 -0.125000  0.125000 -0.375000    0.00195313  24 t-inv F
  0.125000 -0.125000  0.375000    0.00195313  24 t-inv F
 -0.125000 -0.375000  0.125000    0.00195313  24 t-inv F
  0.125000  0.375000 -0.125000    0.00195313  24 t-inv F
 -0.500000 -0.125000 -0.125000    0.00195313  25 t-inv F
 -0.125000  0.125000 -0.500000    0.00195313  25 t-inv F
  0.125000 -0.125000  0.500000    0.00195313  25 t-inv F
 -0.125000 -0.500000  0.125000    0.00195313  25 t-inv F
  0.125000  0.500000 -0.125000    0.00195313  25 t-inv F
  0.375000 -0.125000 -0.125000    0.00195313  26 t-inv F
 -0.125000  0.125000  0.375000    0.00195313  26 t-inv F
  0.125000 -0.125000 -0.375000    0.00195313  26 t-inv F
 -0.125000  0.375000  0.125000    0.00195313  26 t-inv F
  0.125000 -0.375000 -0.125000    0.00195313  26 t-inv F
  0.250000 -0.125000 -0.125000    0.00195313  27 t-inv F
 -0.125000  0.125000  0.250000    0.00195313  27 t-inv F
  0.125000 -0.125000 -0.250000    0.00195313  27 t-inv F
 -0.125000  0.250000  0.125000    0.00195313  27 t-inv F
  0.125000 -0.250000 -0.125000    0.00195313  27 t-inv F
  0.125000 -0.125000 -0.125000    0.00195313  28 t-inv F
 -0.125000 -0.250000 -0.125000    0.00195313  29 t-inv F
 -0.125000 -0.125000 -0.250000    0.00195313  29 t-inv F
  0.125000  0.125000  0.250000    0.00195313  29 t-inv F
 -0.250000  0.125000 -0.125000    0.00195313  29 t-inv F
  0.250000 -0.125000  0.125000    0.00195313  29 t-inv F
  0.125000 -0.250000  0.125000    0.00195313  29 t-inv F
 -0.125000  0.250000 -0.125000    0.00195313  29 t-inv F
 -0.125000 -0.125000  0.250000    0.00195313  29 t-inv F
  0.125000  0.125000 -0.250000    0.00195313  29 t-inv F
  0.250000  0.125000 -0.125000    0.00195313  29 t-inv F
 -0.250000 -0.125000  0.125000    0.00195313  29 t-inv F
 -0.250000 -0.250000 -0.125000    0.00195313  30 t-inv F
 -0.250000 -0.125000 -0.250000    0.00195313  30 t-inv F
  0.250000  0.125000  0.250000    0.00195313  30 t-inv F
 -0.250000  0.125000 -0.250000    0.00195313  30 t-inv F
  0.250000 -0.125000  0.250000    0.00195313  30 t-inv F
  0.125000 -0.250000  0.250000    0.00195313  30 t-inv F
 -0.125000  0.250000 -0.250000    0.00195313  30 t-inv F
 -0.125000 -0.250000  0.250000    0.00195313  30 t-inv F
  0.125000  0.250000 -0.250000    0.00195313  30 t-inv F
  0.250000  0.250000 -0.125000    0.00195313  30 t-inv F
 -0.250000 -0.250000  0.125000    0.00195313  30 t-inv F
 -0.375000 -0.250000 -0.125000    0.00195313  31 t-inv F
 -0.375000 -0.125000 -0.250000    0.00195313  31 t-inv F
  0.375000  0.125000  0.250000    0.00195313  31 t-inv F
 -0.250000  0.125000 -0.375000    0.00195313  31 t-inv F
  0.250000 -0.125000  0.375000    0.00195313  31 t-inv F
  0.125000 -0.250000  0.375000    0.00195313  31 t-inv F
 -0.125000  0.250000 -0.375000    0.00195313  31 t-inv F
 -0.125000 -0.375000  0.250000    0.00195313  31 t-inv F
  0.125000  0.375000 -0.250000    0.00195313  31 t-inv F
  0.250000  0.375000 -0.125000    0.00195313  31 t-inv F
 -0.250000 -0.375000  0.125000    0.00195313  31 t-inv F
 -0.500000 -0.250000 -0.125000    0.00195313  32 t-inv F
 -0.500000 -0.125000 -0.250000    0.00195313  32 t-inv F
  0.500000  0.125000  0.250000    0.00195313  32 t-inv F
 -0.250000  0.125000 -0.500000    0.00195313  32 t-inv F
  0.250000 -0.125000  0.500000    0.00195313  32 t-inv F
  0.125000 -0.250000  0.500000    0.00195313  32 t-inv F
 -0.125000  0.250000 -0.500000    0.00195313  32 t-inv F
 -0.125000 -0.500000  0.250000    0.00195313  32 t-inv F
  0.125000  0.500000 -0.250000    0.00195313  32 t-inv F
  0.250000  0.500000 -0.125000    0.00195313  32 t-inv F
 -0.250000 -0.500000  0.125000    0.00195313  32 t-inv F
  0.375000 -0.250000 -0.125000    0.00195313  33 t-inv F
  0.375000 -0.125000 -0.250000    0.00195313  33 t-inv F
 -0.375000  0.125000  0.250000    0.00195313  33 t-inv F
 -0.250000  0.125000  0.375000    0.00195313  33 t-inv F
  0.250000 -0.125000 -0.375000    0.00195313  33 t-inv F
  0.125000 -0.250000 -0.375000    0.00195313  33 t-inv F
 -0.125000  0.250000  0.375000    0.00195313  33 t-inv F
 -0.125000  0.375000  0.250000    0.00195313  33 t-inv F
  0.125000 -0.375000 -0.250000    0.00195313  33 t-inv F
  0.250000 -0.375000 -0.125000    0.00195313  33 t-inv F
 -0.250000  0.375000  0.125000    0.00195313  33 t-inv F
  0.250000 -0.250000 -0.125000    0.00195313  34 t-inv F
  0.250000 -0.125000 -0.250000    0.00195313  34 t-inv F
 -0.250000  0.125000  0.250000    0.00195313  34 t-inv F
  0.125000 -0.250000 -0.250000    0.00195313  34 t-inv F
 -0.125000  0.250000  0.250000    0.00195313  34 t-inv F
 -0.125000 -0.375000 -0.125000    0.00195313  35 t-inv F
 -0.125000 -0.125000 -0.375000    0.00195313  35 t-inv F
  0.125000  0.125000  0.375000    0.00195313  35 t-inv F
 -0.375000  0.125000 -0.125000    0.00195313  35 t-inv F
  0.375000 -0.125000  0.125000    0.00195313  35 t-inv F
  0.125000 -0.375000  0.125000    0.00195313  35 t-inv F
 -0.125000  0.375000 -0.125000    0.00195313  35 t-inv F
 -0.125000 -0.125000  0.375000    0.00195313  35 t-inv F
  0.125000  0.125000 -0.375000    0.00195313  35 t-inv F
  0.375000  0.125000 -0.125000    0.00195313  35 t-inv F
 -0.375000 -0.125000  0.125000    0.00195313  35 t-inv F
 -0.250000 -0.375000 -0.125000    0.00195313  36 t-inv F
 -0.250000 -0.125000 -0.375000    0.00195313  36 t-inv F
  0.250000  0.125000  0.375000    0.00195313  36 t-inv F
 -0.375000  0.125000 -0.250000    0.00195313  36 t-inv F
  0.375000 -0.125000  0.250000    0.00195313  36 t-inv F
  0.125000 -0.375000  0.250000    0.00195313  36 t-inv F
 -0.125000  0.375000 -0.250000    0.00195313  36 t-inv F
 -0.125000 -0.250000  0.375000    0.00195313  36 t-inv F
  0.125000  0.250000 -0.375000    0.00195313  36 t-inv F
  0.375000  0.250000 -0.125000    0.00195313  36 t-inv F
 -0.375000 -0.250000  0.125000    0.00195313  36 t-inv F
 -0.375000 -0.375000 -0.125000    0.00195313  37 t-inv F
 -0.375000 -0.125000 -0.375000    0.00195313  37 t-inv F
  0.375000  0.125000  0.375000    0.00195313  37 t-inv F
 -0.375000  0.125000 -0.375000    0.00195313  37 t-inv F
  0.375000 -0.125000  0.375000    0.00195313  37 t-inv F
  0.125000 -0.375000  0.375000    0.00195313  37 t-inv F
 -0.125000  0.375000 -0.375000    0.00195313  37 t-inv F
 -0.125000 -0.375000  0.375000    0.00195313  37 t-inv F
  0.125000  0.375000 -0.375000    0.00195313  37 t-inv F
  0.375000  0.375000 -0.125000    0.00195313  37 t-inv F
 -0.375000 -0.375000  0.125000    0.00195313  37 t-inv F
 -0.500000 -0.375000 -0.125000    0.00195313  38 t-inv F
 -0.500000 -0.125000 -0.375000    0.00195313  38 t-inv F
  0.500000  0.125000  0.375000    0.00195313  38 t-inv F
 -0.375000  0.125000 -0.500000    0.00195313  38 t-inv F
  0.375000 -0.125000  0.500000    0.00195313  38 t-inv F
  0.125000 -0.375000  0.500000    0.00195313  38 t-inv F
 -0.125000  0.375000 -0.500000    0.00195313  38 t-inv F
 -0.125000 -0.500000  0.375000    0.00195313  38 t-inv F
  0.125000  0.500000 -0.375000    0.00195313  38 t-inv F
  0.375000  0.500000 -0.125000    0.00195313  38 t-inv F
 -0.375000 -0.500000  0.125000    0.00195313  38 t-inv F
  0.375000 -0.375000 -0.125000    0.00195313  39 t-inv F
  0.375000 -0.125000 -0.375000    0.00195313  39 t-inv F
 -0.375000  0.125000  0.375000    0.00195313  39 t-inv F
  0.125000 -0.375000 -0.375000    0.00195313  39 t-inv F
 -0.125000  0.375000  0.375000    0.00195313  39 t-inv F
 -0.125000 -0.500000 -0.125000    0.00195313  40 t-inv F
 -0.125000 -0.125000 -0.500000    0.00195313  40 t-inv F
  0.125000  0.125000  0.500000    0.00195313  40 t-inv F
 -0.500000  0.125000 -0.125000    0.00195313  40 t-inv F
  0.500000 -0.125000  0.125000    0.00195313  40 t-inv F
 -0.250000 -0.500000 -0.125000    0.00195313  41 t-inv F
 -0.250000 -0.125000 -0.500000    0.00195313  41 t-inv F
  0.250000  0.125000  0.500000    0.00195313  41 t-inv F
 -0.500000  0.125000 -0.250000    0.00195313  41 t-inv F
  0.500000 -0.125000  0.250000    0.00195313  41 t-inv F
  0.125000 -0.500000  0.250000    0.00195313  41 t-inv F
 -0.125000  0.500000 -0.250000    0.00195313  41 t-inv F
 -0.125000 -0.250000  0.500000    0.00195313  41 t-inv F
  0.125000  0.250000 -0.500000    0.00195313  41 t-inv F
  0.500000  0.250000 -0.125000    0.00195313  41 t-inv F
 -0.500000 -0.250000  0.125000    0.00195313  41 t-inv F
 -0.375000 -0.500000 -0.125000    0.00195313  42 t-inv F
 -0.375000 -0.125000 -0.500000    0.00195313  42 t-inv F
  0.375000  0.125000  0.500000    0.00195313  42 t-inv F
 -0.500000  0.125000 -0.375000    0.00195313  42 t-inv F
  0.500000 -0.125000  0.375000    0.00195313  42 t-inv F
  0.125000 -0.500000  0.375000    0.00195313  42 t-inv F
 -0.125000  0.500000 -0.375000    0.00195313  42 t-inv F
 -0.125000 -0.375000  0.500000    0.00195313  42 t-inv F
  0.125000  0.375000 -0.500000    0.00195313  42 t-inv F
  0.500000  0.375000 -0.125000    0.00195313  42 t-inv F
 -0.500000 -0.375000  0.125000    0.00195313  42 t-inv F
 -0.500000 -0.500000 -0.125000    0.00195313  43 t-inv F
 -0.500000 -0.125000 -0.500000    0.00195313  43 t-inv F
  0.500000  0.125000  0.500000    0.00195313  43 t-inv F
  0.125000 -0.500000  0.500000    0.00195313  43 t-inv F
 -0.125000  0.500000 -0.500000    0.00195313  43 t-inv F
 -0.250000  0.375000 -0.125000    0.00195313  44 t-inv F
 -0.250000 -0.125000  0.375000    0.00195313  44 t-inv F
  0.250000  0.125000 -0.375000    0.00195313  44 t-inv F
  0.375000  0.125000 -0.250000    0.00195313  44 t-inv F
 -0.375000 -0.125000  0.250000    0.00195313  44 t-inv F
  0.125000  0.375000  0.250000    0.00195313  44 t-inv F
 -0.125000 -0.375000 -0.250000    0.00195313  44 t-inv F
 -0.125000 -0.250000 -0.375000    0.00195313  44 t-inv F
  0.125000  0.250000  0.375000    0.00195313  44 t-inv F
 -0.375000  0.250000 -0.125000    0.00195313  44 t-inv F
  0.375000 -0.250000  0.125000    0.00195313  44 t-inv F
 -0.375000  0.375000 -0.125000    0.00195313  45 t-inv F
 -0.375000 -0.125000  0.375000    0.00195313  45 t-inv F
  0.375000  0.125000 -0.375000    0.00195313  45 t-inv F
  0.125000  0.375000  0.375000    0.00195313  45 t-inv F
 -0.125000 -0.375000 -0.375000    0.00195313  45 t-inv F
 -0.250000  0.250000 -0.125000    0.00195313  46 t-inv F
 -0.250000 -0.125000  0.250000    0.00195313  46 t-inv F
  0.250000  0.125000 -0.250000    0.00195313  46 t-inv F
  0.125000  0.250000  0.250000    0.00195313  46 t-inv F
 -0.125000 -0.250000 -0.250000    0.00195313  46 t-inv F
 -0.250000 -0.250000 -0.250000    0.00195313  47 t-inv F
 -0.250000  0.250000 -0.250000    0.00195313  47 t-inv F
  0.250000 -0.250000  0.250000    0.00195313  47 t-inv F
 -0.250000 -0.250000  0.250000    0.00195313  47 t-inv F
  0.250000  0.250000 -0.250000    0.00195313  47 t-inv F
 -0.375000 -0.250000 -0.250000    0.00195313  48 t-inv F
 -0.250000  0.250000 -0.375000    0.00195313  48 t-inv F
  0.250000 -0.250000  0.375000    0.00195313  48 t-inv F
 -0.250000 -0.375000  0.250000    0.00195313  48 t-inv F
  0.250000  0.375000 -0.250000    0.00195313  48 t-inv F
 -0.500000 -0.250000 -0.250000    0.00195313  49 t-inv F
 -0.250000  0.250000 -0.500000    0.00195313  49 t-inv F
  0.250000 -0.250000  0.500000    0.00195313  49 t-inv F
 -0.250000 -0.500000  0.250000    0.00195313  49 t-inv F
  0.250000  0.500000 -0.250000    0.00195313  49 t-inv F
  0.375000 -0.250000 -0.250000    0.00195313  50 t-inv F
 -0.250000  0.250000  0.375000    0.00195313  50 t-inv F
  0.250000 -0.250000 -0.375000    0.00195313  50 t-inv F
 -0.250000  0.375000  0.250000    0.00195313  50 t-inv F
  0.250000 -0.375000 -0.250000    0.00195313  50 t-inv F
  0.250000 -0.250000 -0.250000    0.00195313  51 t-inv F
 -0.250000 -0.375000 -0.250000    0.00195313  52 t-inv F
 -0.250000 -0.250000 -0.375000    0.00195313  52 t-inv F
  0.250000  0.250000  0.375000    0.00195313  52 t-inv F
 -0.375000  0.250000 -0.250000    0.00195313  52 t-inv F
  0.375000 -0.250000  0.250000    0.00195313  52 t-inv F
  0.250000 -0.375000  0.250000    0.00195313  52 t-inv F
 -0.250000  0.375000 -0.250000    0.00195313  52 t-inv F
 -0.250000 -0.250000  0.375000    0.00195313  52 t-inv F
  0.250000  0.250000 -0.375000    0.00195313  52 t-inv F
  0.375000  0.250000 -0.250000    0.00195313  52 t-inv F
 -0.375000 -0.250000  0.250000    0.00195313  52 t-inv F
 -0.375000 -0.375000 -0.250000    0.00195313  53 t-inv F
 -0.375000 -0.250000 -0.375000    0.00195313  53 t-inv F
  0.375000  0.250000  0.375000    0.00195313  53 t-inv F
 -0.375000  0.250000 -0.375000    0.00195313  53 t-inv F
  0.375000 -0.250000  0.375000    0.00195313  53 t-inv F
  0.250000 -0.375000  0.375000    0.00195313  53 t-inv F
 -0.250000  0.375000 -0.375000    0.00195313  53 t-inv F
 -0.250000 -0.375000  0.375000    0.00195313  53 t-inv F
  0.250000  0.375000 -0.375000    0.00195313  53 t-inv F
  0.375000  0.375000 -0.250000    0.00195313  53 t-inv F
 -0.375000 -0.375000  0.250000    0.00195313  53 t-inv F
 -0.500000 -0.375000 -0.250000    0.00195313  54 t-inv F
 -0.500000 -0.250000 -0.375000    0.00195313  54 t-inv F
  0.500000  0.250000  0.375000    0.00195313  54 t-inv F
 -0.375000  0.250000 -0.500000    0.00195313  54 t-inv F
  0.375000 -0.250000  0.500000    0.00195313  54 t-inv F
  0.250000 -0.375000  0.500000    0.00195313  54 t-inv F
 -0.250000  0.375000 -0.500000    0.00195313  54 t-inv F
 -0.250000 -0.500000  0.375000    0.00195313  54 t-inv F
  0.250000  0.500000 -0.375000    0.00195313  54 t-inv F
  0.375000  0.500000 -0.250000    0.00195313  54 t-inv F
 -0.375000 -0.500000  0.250000    0.00195313  54 t-inv F
  0.375000 -0.375000 -0.250000    0.00195313  55 t-inv F
  0.375000 -0.250000 -0.375000    0.00195313  55 t-inv F
 -0.375000  0.250000  0.375000    0.00195313  55 t-inv F
  0.250000 -0.375000 -0.375000    0.00195313  55 t-inv F
 -0.250000  0.375000  0.375000    0.00195313  55 t-inv F
 -0.250000 -0.500000 -0.250000    0.00195313  56 t-inv F
 -0.250000 -0.250000 -0.500000    0.00195313  56 t-inv F
  0.250000  0.250000  0.500000    0.00195313  56 t-inv F
 -0.500000  0.250000 -0.250000    0.00195313  56 t-inv F
  0.500000 -0.250000  0.250000    0.00195313  56 t-inv F
 -0.375000 -0.500000 -0.250000    0.00195313  57 t-inv F
 -0.375000 -0.250000 -0.500000    0.00195313  57 t-inv F
  0.375000  0.250000  0.500000    0.00195313  57 t-inv F
 -0.500000  0.250000 -0.375000    0.00195313  57 t-inv F
  0.500000 -0.250000  0.375000    0.00195313  57 t-inv F
  0.250000 -0.500000  0.375000    0.00195313  57 t-inv F
 -0.250000  0.500000 -0.375000    0.00195313  57 t-inv F
 -0.250000 -0.375000  0.500000    0.00195313  57 t-inv F
  0.250000  0.375000 -0.500000    0.00195313  57 t-inv F
  0.500000  0.375000 -0.250000    0.00195313  57 t-inv F
 -0.500000 -0.375000  0.250000    0.00195313  57 t-inv F
 -0.500000 -0.500000 -0.250000    0.00195313  58 t-inv F
 -0.500000 -0.250000 -0.500000    0.00195313  58 t-inv F
  0.500000  0.250000  0.500000    0.00195313  58 t-inv F
  0.250000 -0.500000  0.500000    0.00195313  58 t-inv F
 -0.250000  0.500000 -0.500000    0.00195313  58 t-inv F
 -0.375000  0.375000 -0.250000    0.00195313  59 t-inv F
 -0.375000 -0.250000  0.375000    0.00195313  59 t-inv F
  0.375000  0.250000 -0.375000    0.00195313  59 t-inv F
  0.250000  0.375000  0.375000    0.00195313  59 t-inv F
 -0.250000 -0.375000 -0.375000    0.00195313  59 t-inv F
 -0.375000 -0.375000 -0.375000    0.00195313  60 t-inv F
 -0.375000  0.375000 -0.375000    0.00195313  60 t-inv F
  0.375000 -0.375000  0.375000    0.00195313  60 t-inv F
 -0.375000 -0.375000  0.375000    0.00195313  60 t-inv F
  0.375000  0.375000 -0.375000    0.00195313  60 t-inv F
 -0.500000 -0.375000 -0.375000    0.00195313  61 t-inv F
 -0.375000  0.375000 -0.500000    0.00195313  61 t-inv F
  0.375000 -0.375000  0.500000    0.00195313  61 t-inv F
 -0.375000 -0.500000  0.375000    0.00195313  61 t-inv F
  0.375000  0.500000 -0.375000    0.00195313  61 t-inv F
  0.375000 -0.375000 -0.375000    0.00195313  62 t-inv F
 -0.375000 -0.500000 -0.375000    0.00195313  63 t-inv F
 -0.375000 -0.375000 -0.500000    0.00195313  63 t-inv F
  0.375000  0.375000  0.500000    0.00195313  63 t-inv F
 -0.500000  0.375000 -0.375000    0.00195313  63 t-inv F
  0.500000 -0.375000  0.375000    0.00195313  63 t-inv F
 -0.500000 -0.500000 -0.375000    0.00195313  64 t-inv F
 -0.500000 -0.375000 -0.500000    0.00195313  64 t-inv F
  0.500000  0.375000  0.500000    0.00195313  64 t-inv F
  0.375000 -0.500000  0.500000    0.00195313  64 t-inv F
 -0.375000  0.500000 -0.500000    0.00195313  64 t-inv F


--------------------------------------------------------------------------------------------------------




 Dimension of arrays:
   k-points           NKPTS =     65   k-points in BZ     NKDIM =    512   number of bands    NBANDS=     48
   number of dos      NEDOS =    301   number of ions     NIONS =     15
   non local maximal  LDIM  =      4   non local SUM 2l+1 LMDIM =      8
   total plane-waves  NPLWV =  64000
   max r-space proj   IRMAX =      1   max aug-charges    IRDMAX=  20507
   dimension x,y,z NGX =    40 NGY =   40 NGZ =   40
   dimension x,y,z NGXF=    80 NGYF=   80 NGZF=   80
   support grid    NGXF=    80 NGYF=   80 NGZF=   80
   ions per type =               1  12   2
   NGX,Y,Z   is equivalent  to a cutoff of  12.76, 12.76, 12.76 a.u.
   NGXF,Y,Z  is equivalent  to a cutoff of  25.52, 25.52, 25.52 a.u.

 SYSTEM =  B12BeN2                                 
 POSCAR =  B12BeN2.cif                             

 Startparameter for this run:
   NWRITE =      2    write-flag & timer
   PREC   = accura    normal or accurate (medium, high low for compatibility)
   ISTART =      0    job   : 0-new  1-cont  2-samecut
   ICHARG =      2    charge: 1-file 2-atom 10-const
   ISPIN  =      1    spin polarized calculation?
   LNONCOLLINEAR =      F non collinear calculations
   LSORBIT =      F    spin-orbit coupling
   INIWAV =      1    electr: 0-lowe 1-rand  2-diag
   LASPH  =      F    aspherical Exc in radial PAW
 Electronic Relaxation 1
   ENCUT  =  500.0 eV  36.75 Ry    6.06 a.u.   9.50  9.50  9.50*2*pi/ulx,y,z
   ENINI  =  500.0     initial cutoff
   ENAUG  =  627.1 eV  augmentation charge cutoff
   NELM   =     60;   NELMIN=  2; NELMDL= -5     # of ELM steps 
   EDIFF  = 0.1E-04   stopping-criterion for ELM
   LREAL  =      F    real-space projection
   NLSPLINE    = F    spline interpolate recip. space projectors
   LCOMPAT=      F    compatible to vasp.4.4
   GGA_COMPAT  = T    GGA compatible to vasp.4.4-vasp.4.6
   LMAXPAW     = -100 max onsite density
   LMAXMIX     =    2 max onsite mixed and CHGCAR
   VOSKOWN=      0    Vosko Wilk Nusair interpolation
   ROPT   =    0.00000   0.00000   0.00000
 Ionic relaxation
   EDIFFG = -.1E-01   stopping-criterion for IOM
   NSW    =      0    number of steps for IOM
   NBLOCK =      1;   KBLOCK =      1    inner block; outer block 
   IBRION =     -1    ionic relax: 0-MD 1-quasi-New 2-CG
   NFREE  =      1    steps in history (QN), initial steepest desc. (CG)
   ISIF   =      3    stress and relaxation
   IWAVPR =     10    prediction:  0-non 1-charg 2-wave 3-comb
   ISYM   =      3    0-nonsym 1-usesym 2-fastsym
   LCORR  =      T    Harris-Foulkes like correction to forces

   POTIM  = 0.5000    time-step for ionic-motion
   TEIN   =    0.0    initial temperature
   TEBEG  =    0.0;   TEEND  =   0.0 temperature during run
   SMASS  =  -3.00    Nose mass-parameter (am)
   estimated Nose-frequenzy (Omega)   =  0.10E-29 period in steps = 0.13E+47 mass=  -0.621E-27a.u.
   SCALEE = 1.0000    scale energy and forces
   NPACO  =    256;   APACO  = 10.0  distance and # of slots for P.C.
   PSTRESS=    0.0 pullay stress

  Mass of Ions in am
   POMASS =   9.01 10.81 14.00
  Ionic Valenz
   ZVAL   =   2.00  3.00  5.00
  Atomic Wigner-Seitz radii
   RWIGS  =  -1.00 -1.00 -1.00
  virtual crystal weights 
   VCA    =   1.00  1.00  1.00
   NELECT =      48.0000    total number of electrons
   NUPDOWN=      -1.0000    fix difference up-down

 DOS related values:
   EMIN   =  10.00;   EMAX   =-10.00  energy-range for DOS
   EFERMI =   0.00
   ISMEAR =     0;   SIGMA  =   0.01  broadening in eV -4-tet -1-fermi 0-gaus

 Electronic relaxation 2 (details)
   IALGO  =     58    algorithm
   LDIAG  =      T    sub-space diagonalisation (order eigenvalues)
   LSUBROT=      F    optimize rotation matrix (better conditioning)
   TURBO    =      0    0=normal 1=particle mesh
   IRESTART =      0    0=no restart 2=restart with 2 vectors
   NREBOOT  =      0    no. of reboots
   NMIN     =      0    reboot dimension
   EREF     =   0.00    reference energy to select bands
   IMIX   =      4    mixing-type and parameters
     AMIX     =   0.40;   BMIX     =  1.00
     AMIX_MAG =   1.60;   BMIX_MAG =  1.00
     AMIN     =   0.10
     WC   =   100.;   INIMIX=   1;  MIXPRE=   1;  MAXMIX= -45

 Intra band minimization:
   WEIMIN = 0.0000     energy-eigenvalue tresh-hold
   EBREAK =  0.52E-07  absolut break condition
   DEPER  =   0.30     relativ break condition  

   TIME   =   0.40     timestep for ELM

  volume/ion in A,a.u.               =       7.13        48.14
  Fermi-wavevector in a.u.,A,eV,Ry     =   1.253245  2.368291 21.369639  1.570624
  Thomas-Fermi vector in A             =   2.387107
 
 Write flags
   LWAVE        =      T    write WAVECAR
   LDOWNSAMPLE  =      F    k-point downsampling of WAVECAR
   LCHARG       =      F    write CHGCAR
   LVTOT        =      F    write LOCPOT, total local potential
   LVHAR        =      F    write LOCPOT, Hartree potential only
   LELF         =      F    write electronic localiz. function (ELF)
   LORBIT       =      0    0 simple, 1 ext, 2 COOP (PROOUT), +10 PAW based schemes


 Dipole corrections
   LMONO  =      F    monopole corrections only (constant potential shift)
   LDIPOL =      F    correct potential (dipole corrections)
   IDIPOL =      0    1-x, 2-y, 3-z, 4-all directions 
   EPSILON=  1.0000000 bulk dielectric constant

 Exchange correlation treatment:
   GGA     =    PE    GGA type
   LEXCH   =     8    internal setting for exchange type
   LIBXC   =     F    Libxc                    
   VOSKOWN =     0    Vosko Wilk Nusair interpolation
   EXXOEP  =     0    0=HF, 1=EXX-LHF (local Hartree Fock) 2=EXX OEP
   LHFCALC =     T    Hartree Fock is set to
   LSYMGRAD=     F    symmetrize gradient (conserves proper symmetry)
   PRECFOCK=normal    Normal, Fast or Accurate (Low or Medium for compatibility)
   LRHFCALC=     F    long range Hartree Fock
   LRSCOR  =     F    long range correlation only (use DFT for short range part)
   LTHOMAS =     F    Thomas Fermi screening in HF
   LMODELHF=     F    short range full HF, long range fraction AEXX
   FOCKCORR=     1    mode to apply convergence corrections
   LFOCKACE=     T    use Adeptively-Compressed-Exchange operator
   ENCUT4O =  -1.0   cutoff for four orbital integrals eV
   LMAXFOCK=     4    L truncation for augmentation on plane wave grid
   LMAXFOCKAE=  -1    L truncation for all-electron charge restoration on plane wave grid
   NMAXFOCKAE=   1    number of basis functions for all-electron charge restoration
   LFOCKAEDFT=     F  apply the AE augmentation even for DFT
   NKREDX  =     1    reduce k-point grid by
   NKREDY  =     1    reduce k-point grid by
   NKREDZ  =     1    reduce k-point grid by
   SHIFTRED=     F    shift reduced grid of Gamma
   HFKIDENT=     F    idential grid for each k-point
   ODDONLY =     F    use only odd q-grid points
   EVENONLY=     F    use only even q-grid points
   HFALPHA =   -1.0000 decay constant for conv. correction
   MCALPHA =    0.0000 extent of test-charge in conv. correction in multipole expansion
   AEXX    =    0.2500 exact exchange contribution
   HFSCREEN=    0.2000 screening length (either q_TF or 0.3 A-1)
   HFSCREENC=   0.2000 screening length for correlation (either q_TF or 0.3 A-1)
   HFRCUT  =    0.0000 spherical cutoff for potential kernel
   ALDAX   =    0.7500 LDA exchange part
   AGGAX   =    0.7500 GGA exchange part
   ALDAC   =    1.0000 LDA correlation
   AGGAC   =    1.0000 GGA correlation
   ENCUTFOCK=  -1.0 apply spherical cutoff to Coloumb kernel
   NBANDSGWLOW=     1    first orbital included in HF term
   NBLOCK_FOCK=    64    blocking factor in FOCK_ACC

 Linear response parameters
   LEPSILON=     F    determine dielectric tensor
   LRPA    =     F    only Hartree local field effects (RPA)
   LNABLA  =     F    use nabla operator in PAW spheres
   LVEL    =     F    velocity operator in full k-point grid
   CSHIFT  =0.1000    complex shift for real part using Kramers Kronig
   OMEGAMAX=  -1.0    maximum frequency
   DEG_THRESHOLD= 0.2000000E-02 threshold for treating states as degnerate
   RTIME   =   -0.100 relaxation time in fs
  (WPLASMAI=    0.000 imaginary part of plasma frequency in eV, 0.658/RTIME)
   DFIELD  = 0.0000000 0.0000000 0.0000000 field for delta impulse in time
 
  Optional k-point grid parameters
   LKPOINTS_OPT  =     F    use optional k-point grid
   KPOINTS_OPT_MODE=     1    mode for optional k-point grid
 
 Orbital magnetization related:
   ORBITALMAG=     F  switch on orbital magnetization
   LCHIMAG   =     F  perturbation theory with respect to B field
   DQ        =  0.001000  dq finite difference perturbation B field
   LLRAUG    =     F  two centre corrections for induced B field



--------------------------------------------------------------------------------------------------------


 Static calculation
 charge density and potential will be updated during run
 non-spin polarized calculation
 Conjugate gradient for all bands (Freysoldt, et al. PRB 79, 241103 (2009))
 preconditioned conjugated gradient                                        
 perform sub-space diagonalisation
    before iterative eigenvector-optimisation
 modified Broyden-mixing scheme, WC =      100.0
 initial mixing is a Kerker type mixing with AMIX =  0.4000 and BMIX =      1.0000
 Hartree-type preconditioning will be used
 using additional bands            24
 reciprocal scheme for non local part
 use partial core corrections
 no Harris-corrections to forces 
 use gradient corrections 
 use of overlap-Matrix (Vanderbilt PP)
 Gauss-broadening in eV      SIGMA  =   0.01


--------------------------------------------------------------------------------------------------------


  energy-cutoff  :      500.00
  volume of cell :      106.99
      direct lattice vectors                 reciprocal lattice vectors
     5.211289438 -0.001831975 -0.001322927     0.191943144  0.097200111  0.070459267
    -2.354721409  4.648959888  0.001322927     0.000057748  0.215151177 -0.070459267
    -2.354717119  1.447433719  4.417887130     0.000057460 -0.000035320  0.226394744

  length of vectors
     5.211289927  5.211289927  5.211284273     0.226394657  0.226394657  0.226394754


 
 k-points in units of 2pi/SCALE and weight: Auto                                    
   0.00000000  0.00000000  0.00000000       0.002
   0.02399289  0.01215001  0.00880741       0.012
   0.04798579  0.02430003  0.01761482       0.012
   0.07197868  0.03645004  0.02642223       0.012
   0.09597157  0.04860006  0.03522963       0.006
   0.02400011  0.03904391  0.00000000       0.012
   0.04799300  0.05119392  0.00880741       0.023
   0.07198590  0.06334394  0.01761482       0.023
   0.09597879  0.07549395  0.02642223       0.023
  -0.07197146 -0.00955614 -0.03522963       0.023
  -0.04797857  0.00259387 -0.02642223       0.023
  -0.02398567  0.01474388 -0.01761482       0.012
   0.04800022  0.07808782  0.00000000       0.012
   0.07199312  0.09023784  0.00880741       0.023
   0.09598601  0.10238785  0.01761482       0.023
  -0.07196424  0.01733775 -0.04403704       0.023
  -0.04797135  0.02948777 -0.03522963       0.012
   0.07200033  0.11713173  0.00000000       0.012
   0.09599323  0.12928175  0.00880741       0.023
  -0.07195702  0.04423165 -0.05284445       0.012
   0.09600045  0.15617564  0.00000000       0.006
   0.02400729  0.03903950  0.02829934       0.012
   0.04800019  0.05118951  0.03710675       0.012
   0.07199308  0.06333952  0.04591416       0.012
   0.09598597  0.07548954  0.05472157       0.012
  -0.07196428 -0.00956056 -0.00693029       0.012
  -0.04797139  0.00258945  0.00187712       0.012
  -0.02397849  0.01473947  0.01068453       0.004
   0.02401451  0.06593339  0.01949193       0.023
   0.04800741  0.07808341  0.02829934       0.023
   0.07200030  0.09023342  0.03710675       0.023
   0.09599319  0.10238343  0.04591416       0.023
  -0.07195706  0.01733334 -0.01573770       0.023
  -0.04796417  0.02948335 -0.00693029       0.012
   0.02402173  0.09282729  0.01068453       0.023
   0.04801462  0.10497730  0.01949193       0.023
   0.07200752  0.11712732  0.02829934       0.023
   0.09600041  0.12927733  0.03710675       0.023
  -0.07194984  0.04422723 -0.02454511       0.012
   0.02402895  0.11972119  0.00187712       0.012
   0.04802184  0.13187120  0.01068453       0.023
   0.07201474  0.14402122  0.01949193       0.023
   0.09600763  0.15617123  0.02829934       0.012
   0.04797131 -0.05638608  0.07233638       0.023
   0.07196421 -0.04423606  0.08114379       0.012
   0.04797853 -0.02949218  0.06352898       0.012
   0.04801459  0.07807899  0.05659869       0.012
   0.07200748  0.09022901  0.06540609       0.012
   0.09600037  0.10237902  0.07421350       0.012
  -0.07194988  0.01732892  0.01256164       0.012
  -0.04795698  0.02947894  0.02136905       0.004
   0.04802181  0.10497289  0.04779128       0.023
   0.07201470  0.11712290  0.05659869       0.023
   0.09600759  0.12927292  0.06540609       0.023
  -0.07194266  0.04422282  0.00375424       0.012
   0.04802902  0.13186679  0.03898387       0.012
   0.07202192  0.14401680  0.04779128       0.023
   0.09601481  0.15616681  0.05659869       0.012
   0.07197139 -0.04424048  0.10944314       0.012
   0.07202188  0.11711849  0.08489803       0.012
   0.09601477  0.12926850  0.09370544       0.012
  -0.07193548  0.04421840  0.03205358       0.004
   0.07202910  0.14401239  0.07609062       0.012
   0.09602199  0.15616240  0.08489803       0.012
   0.09602918  0.15615798  0.11319737       0.002
 
 k-points in reciprocal lattice and weights: Auto                                    
   0.00000000  0.00000000  0.00000000       0.002
   0.12500000  0.00000000  0.00000000       0.012
   0.25000000  0.00000000  0.00000000       0.012
   0.37500000  0.00000000  0.00000000       0.012
   0.50000000  0.00000000  0.00000000       0.006
   0.12500000  0.12500000  0.00000000       0.012
   0.25000000  0.12500000  0.00000000       0.023
   0.37500000  0.12500000  0.00000000       0.023
   0.50000000  0.12500000  0.00000000       0.023
  -0.37500000  0.12500000  0.00000000       0.023
  -0.25000000  0.12500000  0.00000000       0.023
  -0.12500000  0.12500000  0.00000000       0.012
   0.25000000  0.25000000  0.00000000       0.012
   0.37500000  0.25000000  0.00000000       0.023
   0.50000000  0.25000000  0.00000000       0.023
  -0.37500000  0.25000000  0.00000000       0.023
  -0.25000000  0.25000000  0.00000000       0.012
   0.37500000  0.37500000  0.00000000       0.012
   0.50000000  0.37500000  0.00000000       0.023
  -0.37500000  0.37500000  0.00000000       0.012
   0.50000000  0.50000000  0.00000000       0.006
   0.12500000  0.12500000  0.12500000       0.012
   0.25000000  0.12500000  0.12500000       0.012
   0.37500000  0.12500000  0.12500000       0.012
   0.50000000  0.12500000  0.12500000       0.012
  -0.37500000  0.12500000  0.12500000       0.012
  -0.25000000  0.12500000  0.12500000       0.012
  -0.12500000  0.12500000  0.12500000       0.004
   0.12500000  0.25000000  0.12500000       0.023
   0.25000000  0.25000000  0.12500000       0.023
   0.37500000  0.25000000  0.12500000       0.023
   0.50000000  0.25000000  0.12500000       0.023
  -0.37500000  0.25000000  0.12500000       0.023
  -0.25000000  0.25000000  0.12500000       0.012
   0.12500000  0.37500000  0.12500000       0.023
   0.25000000  0.37500000  0.12500000       0.023
   0.37500000  0.37500000  0.12500000       0.023
   0.50000000  0.37500000  0.12500000       0.023
  -0.37500000  0.37500000  0.12500000       0.012
   0.12500000  0.50000000  0.12500000       0.012
   0.25000000  0.50000000  0.12500000       0.023
   0.37500000  0.50000000  0.12500000       0.023
   0.50000000  0.50000000  0.12500000       0.012
   0.25000000 -0.37500000  0.12500000       0.023
   0.37500000 -0.37500000  0.12500000       0.012
   0.25000000 -0.25000000  0.12500000       0.012
   0.25000000  0.25000000  0.25000000       0.012
   0.37500000  0.25000000  0.25000000       0.012
   0.50000000  0.25000000  0.25000000       0.012
  -0.37500000  0.25000000  0.25000000       0.012
  -0.25000000  0.25000000  0.25000000       0.004
   0.25000000  0.37500000  0.25000000       0.023
   0.37500000  0.37500000  0.25000000       0.023
   0.50000000  0.37500000  0.25000000       0.023
  -0.37500000  0.37500000  0.25000000       0.012
   0.25000000  0.50000000  0.25000000       0.012
   0.37500000  0.50000000  0.25000000       0.023
   0.50000000  0.50000000  0.25000000       0.012
   0.37500000 -0.37500000  0.25000000       0.012
   0.37500000  0.37500000  0.37500000       0.012
   0.50000000  0.37500000  0.37500000       0.012
  -0.37500000  0.37500000  0.37500000       0.004
   0.37500000  0.50000000  0.37500000       0.012
   0.50000000  0.50000000  0.37500000       0.012
   0.50000000  0.50000000  0.50000000       0.002
 
 position of ions in fractional coordinates (direct lattice) 
   0.49999994  0.49999994  0.50000000
   0.66934316  0.00325553  0.00325509
   0.99674570  0.33065808  0.00325535
   0.32396096  0.19732857  0.19732731
   0.80267307  0.67604060  0.19732743
   0.19732817  0.80267348  0.32396087
   0.99674512  0.00325603  0.33065728
   0.00325603  0.99674512  0.66934272
   0.80267348  0.19732817  0.67603913
   0.19732857  0.32396096  0.80267269
   0.67604060  0.80267307  0.80267257
   0.00325553  0.66934316  0.99674491
   0.33065808  0.99674570  0.99674465
   0.62342718  0.37657444  0.37657565
   0.37657444  0.62342718  0.62342435
 
 position of ions in cartesian coordinates  (Angst):
   0.25092528  3.04728053  2.20894356
   3.47281026  0.01862013  0.01349942
   4.40805724  1.54010203  0.01350059
   0.75895052  1.20239730  0.87160226
   2.12642414  3.42703351  0.87160280
  -1.62457445  4.20014720  1.43202340
   4.40805591  0.49191564  1.45949221
  -3.90620171  5.60265134  2.95839492
   2.12643006  1.89442208  2.98586373
  -1.62456865  2.66753551  3.54628487
  -0.25709508  4.89217175  3.54628433
  -3.90620347  4.55446573  4.40438770
  -2.97095518  6.07594682  4.40438654
   1.47540246  2.29460563  1.66334213
  -0.97354695  3.79996350  2.75454500
 


--------------------------------------------------------------------------------------------------------


 k-point   1 :   0.0000 0.0000 0.0000  plane waves:    2721
 k-point   2 :   0.1250 0.0000 0.0000  plane waves:    2709
 k-point   3 :   0.2500 0.0000 0.0000  plane waves:    2712
 k-point   4 :   0.3750 0.0000 0.0000  plane waves:    2713
 k-point   5 :   0.5000 0.0000 0.0000  plane waves:    2716
 k-point   6 :   0.1250 0.1250 0.0000  plane waves:    2724
 k-point   7 :   0.2500 0.1250 0.0000  plane waves:    2728
 k-point   8 :   0.3750 0.1250 0.0000  plane waves:    2718
 k-point   9 :   0.5000 0.1250 0.0000  plane waves:    2719
 k-point  10 :  -0.3750 0.1250 0.0000  plane waves:    2725
 k-point  11 :  -0.2500 0.1250 0.0000  plane waves:    2725
 k-point  12 :  -0.1250 0.1250 0.0000  plane waves:    2711
 k-point  13 :   0.2500 0.2500 0.0000  plane waves:    2730
 k-point  14 :   0.3750 0.2500 0.0000  plane waves:    2729
 k-point  15 :   0.5000 0.2500 0.0000  plane waves:    2712
 k-point  16 :  -0.3750 0.2500 0.0000  plane waves:    2727
 k-point  17 :  -0.2500 0.2500 0.0000  plane waves:    2729
 k-point  18 :   0.3750 0.3750 0.0000  plane waves:    2726
 k-point  19 :   0.5000 0.3750 0.0000  plane waves:    2721
 k-point  20 :  -0.3750 0.3750 0.0000  plane waves:    2721
 k-point  21 :   0.5000 0.5000 0.0000  plane waves:    2706
 k-point  22 :   0.1250 0.1250 0.1250  plane waves:    2724
 k-point  23 :   0.2500 0.1250 0.1250  plane waves:    2721
 k-point  24 :   0.3750 0.1250 0.1250  plane waves:    2724
 k-point  25 :   0.5000 0.1250 0.1250  plane waves:    2720
 k-point  26 :  -0.3750 0.1250 0.1250  plane waves:    2723
 k-point  27 :  -0.2500 0.1250 0.1250  plane waves:    2708
 k-point  28 :  -0.1250 0.1250 0.1250  plane waves:    2694
 k-point  29 :   0.1250 0.2500 0.1250  plane waves:    2725
 k-point  30 :   0.2500 0.2500 0.1250  plane waves:    2723
 k-point  31 :   0.3750 0.2500 0.1250  plane waves:    2716
 k-point  32 :   0.5000 0.2500 0.1250  plane waves:    2712
 k-point  33 :  -0.3750 0.2500 0.1250  plane waves:    2715
 k-point  34 :  -0.2500 0.2500 0.1250  plane waves:    2702
 k-point  35 :   0.1250 0.3750 0.1250  plane waves:    2723
 k-point  36 :   0.2500 0.3750 0.1250  plane waves:    2724
 k-point  37 :   0.3750 0.3750 0.1250  plane waves:    2717
 k-point  38 :   0.5000 0.3750 0.1250  plane waves:    2712
 k-point  39 :  -0.3750 0.3750 0.1250  plane waves:    2719
 k-point  40 :   0.1250 0.5000 0.1250  plane waves:    2716
 k-point  41 :   0.2500 0.5000 0.1250  plane waves:    2714
 k-point  42 :   0.3750 0.5000 0.1250  plane waves:    2712
 k-point  43 :   0.5000 0.5000 0.1250  plane waves:    2704
 k-point  44 :   0.2500-0.3750 0.1250  plane waves:    2725
 k-point  45 :   0.3750-0.3750 0.1250  plane waves:    2723
 k-point  46 :   0.2500-0.2500 0.1250  plane waves:    2726
 k-point  47 :   0.2500 0.2500 0.2500  plane waves:    2727
 k-point  48 :   0.3750 0.2500 0.2500  plane waves:    2712
 k-point  49 :   0.5000 0.2500 0.2500  plane waves:    2723
 k-point  50 :  -0.3750 0.2500 0.2500  plane waves:    2701
[...]
  405        ggaall_grid                           0.031606                            1   3
  406        m_sumb_d                              0.000375                            5   3
  407        forhar                                0.000317                            1   3
  408          m_sumb_d                              0.000069                          1   4
  409        strehar                               0.000387                            1   3
  410          m_sumb_d                              0.000026                          1   4
  411        m_bcast_d                             0.000136                            2   3
  412      potlok                                0.053185                              1   2
  413        fft3d_mpi                             0.018101                           13   3
  414          fftbrc_mpi                            0.017685                         13   4
  415            fftbas_plan_mpi                       0.017673                       13   5
  416              map_forward                           0.005655                     14   6
  417                map_gather                            0.000155                    8   7
  418                m_alltoallv_z                         0.000165                    8   7
  419                map_scatter                           0.005249                    8   7
  420              map_backward                          0.011610                     12   6
  421                map_gather                            0.000112                    6   7
  422                m_alltoallv_z                         0.000131                    6   7
  423                map_scatter                           0.011281                    6   7
  424        ggaall_grid                           0.033728                            1   3
  425        m_sumb_d                              0.000191                            5   3
  426        pothar                                0.000129                            1   3
  427          m_sumb_d                              0.000058                          1   4
  428        m_bcast_d                             0.000017                            1   3
  429      potlok_metagga                        0.000000                              1   2
  430      set_dd_magatom                        0.000004                              1   2
  431      set_dd_paw                            0.032415                              1   2
  432        m_sumb_d                              0.032393                            7   3
  433      m_bcast_d                             0.000155                              2   2
 
 Flat profile
 ============
 
             routine name                   CPU           calls
 ---------------------------------------------------------------
 fock_fwd                              555.872223        1430
 phaser_hf                             403.624290      765440
 dllmm_trans_eccp_nl_fock_acc           47.760281      299520
 fock_bck                               41.384280        1430
 rpromu_hf_acc                          14.899427     1064960
 redis_pw                               14.397779       16838
 fock_set_gfac_vkpt                     10.658560      732160
 batched_fft                             9.682245     1530880
 racc0mu_hf_acc                          8.243782      765440
 m_sumb_d                                7.660217       15042
 edwav                                   7.256724          20
 total_time                              6.256025           1
 fock_force                              5.893922           1
 fft3d                                   5.785876      792001
 apply_gfac_exchange_mu_acc              4.899439      732160
 eddav                                   4.725596           5
 acc_cufft_makeplan                      4.582709          49
 brgrid                                  4.316701           1
 init_acc                                4.005484           1
 redis_proj                              3.713818       27068
 lapack                                  3.621026        2282
 lincom                                  3.354342        4420
 spher                                   3.325026         865
 pw_charge_trace_mu_acc                  3.323872      765440
 fock_all_dblbuf                         3.320279          22
 vhamil_trace_mu_acc                     3.292281      732160
 depsum_sym                              2.798866          21
 depsum_two_bands_rholm_trace_m          2.601808      366080
 soft_charge_sym                         2.558692          21
 depsum_two_bands_rholm_trace_m          2.365262      332800
 fock_set_fsg_der                        2.321037           1
 m_alltoall_d                            2.066358       63536
 calc_dllmm_trans_and_overl_foc          1.723578      366080
 wrk_allocate                            1.646910           1
 m_bcast_d                               1.605903        4591
 calc_dllmm_trans_and_overl_foc          1.566918      332800
 fftwav                                  1.544415      107777
 fock_set_gfac_der                       1.464917       33280
 fft_and_gather                          1.421261        1495
 fock_set_fsg                            1.228898           1
 contraction                             1.210294      299520
 m_alltoallv_z                           1.071131         397
 eccp                                    0.901663        5850
 vnlac0_acc                              0.817563        6442
 ggaall_grid                             0.795364          24
 fock_charge_mu                          0.751668      765440
 w1_copy                                 0.633119      111171
 map_scatter                             0.393615         397
 eddiag                                  0.337049          11
 pw_charge                               0.287700       10752
 orthch                                  0.265379          21
 strenl                                  0.264081           1
 phase                                   0.258097        3316
 depsum_two_bands_rholm_trace_m          0.239341       33280
 depsum_two_bands_rholm_trace_m          0.235178       33280
 m_bcast_z                               0.233907        5402
 reduce                                  0.231544        1430
 fft3d_mpi                               0.208962      684577
 choleski                                0.203877        1430
 orth1                                   0.173082       11136
 proj1_acc                               0.172297        3380
 overl                                   0.156975        7944
 calc_dllmm_trans_and_overl_foc          0.154377       33280
 apply_gfac_der_mu                       0.146435       33280
 fftwav_mpi                              0.138032      107777
 apply_gfac_weight_mu                    0.121323       33280
 hamiltmu                                0.097152        2282
 overl1                                  0.095191        5142
 m_ibcast_z_from                         0.077793      154440
 projlat_der                             0.057757          65
 fftext_mpi                              0.057747        6572
 m_ireduce_z_to                          0.056634      137280
 elmin_all                               0.047801           1
 fornl                                   0.044540           1
 proall                                  0.044150           1
 w1_dot                                  0.038746        1430
 projmu_acc                              0.037333        1632
 ggemm                                   0.035551        2932
 acc_init_cublas                         0.033069           1
 vhamil                                  0.032782        3712
 potlok                                  0.031242          23
 fock_ace_acc_apply                      0.031062         446
 kinhamil                                0.030406        3712
 setup_precond                           0.024498         650
 hamilt_local                            0.023479        1430
 setdij_                                 0.019741          50
 proj                                    0.018697          65
 acc_init_cusolver                       0.018522           1
 projxyz                                 0.017184          65
 newband                                 0.016629        2607
 fock_ace_construct                      0.015775           1
 rspher_all                              0.015551          10
 fftbas_plan_mpi                         0.015336         353
 w1_dscal                                0.012720        1300
 apply_precond                           0.010997        1632
 augmentation_charge                     0.010423          21
 force_and_stress                        0.008144           1
 map_gather                              0.007849         397
 inisym                                  0.004423           1
 dfftw_execute                           0.003795         129
 waitred                                 0.003244        1430
 waitgth                                 0.003108        1430
 w1_daxpy                                0.002825         446
 densta                                  0.002536          32
 map_backward                            0.002150         372
 map_forward                             0.002023         334
 w1_projall                              0.001716        1632
 pothar                                  0.001627          23
 redis_pw_all                            0.001505          20
 wrk_deallocate                          0.001244           1
 forloc                                  0.000902           1
 set_charge                              0.000786          21
 set_dd_paw                              0.000643          24
 stufak                                  0.000587           1
 strehar                                 0.000361           1
 fewald                                  0.000353           1
 truncate_high_frequency_w1              0.000325        2932
 strelo                                  0.000312           1
 forhar                                  0.000248           1
 fft_gq                                  0.000247          21
 fftbrc_mpi                              0.000242         353
 strkin                                  0.000173           1
 rsp                                     0.000173           1
 posmap                                  0.000041           2
 rcp                                     0.000027           1
 crpa_reader                             0.000025           1
 fordep                                  0.000023           1
 acc_cufft_makeplans                     0.000018           5
 redis_pw_over_bands                     0.000015          21
 set_dd_magatom                          0.000008           2
 shift_bands_between_low_high            0.000007          65
 vectorpot                               0.000004           1
 potlok_metagga                          0.000000          23
 rotate_active_occupied_orbital          0.000000           1
 ---------------------------------------------------------------
  summed up times     1224.293291807175     
 
 Accumulative profile
 ====================
 
             routine name                   CPU           calls
 ---------------------------------------------------------------
 total_time                           1224.293292           1
 elmin_all                            1115.959522           1
 fock_all_dblbuf                      1056.675818          22
 fock_fwd                             1007.631115        1430
 eddiag                                532.111432          11
 edwav                                 508.561921          20
 phaser_hf                             403.624290      765440
 fock_set_gfac_vkpt                    396.471089      732160
 force_and_stress                       89.462043           1
 fock_force                             88.076549           1
 dllmm_trans_eccp_nl_fock_acc           47.760281      299520
 fock_bck                               41.517448        1430
 fock_set_gfac_der                      19.276678       33280
 eddav                                  18.368609           5
 fock_charge_mu                         17.760912      765440
 rpromu_hf_acc                          14.899427     1064960
 redis_pw                               14.831666       16838
 batched_fft                             9.682245     1530880
 racc0mu_hf_acc                          8.243782      765440
 m_sumb_d                                7.660217       15042
 fft3d_mpi                               6.686538      684577
 orthch                                  6.110571          21
 set_charge                              5.913438          21
 fft3d                                   5.785876      792001
 redis_proj                              5.346288       27068
 apply_gfac_exchange_mu_acc              4.899439      732160
 acc_cufft_makeplan                      4.582709          49
 brgrid                                  4.316701           1
 init_acc                                4.005484           1
 wrk_allocate                            3.981859           1
 lapack                                  3.621026        2282
 lincom                                  3.354342        4420
 spher                                   3.325026         865
 pw_charge_trace_mu_acc                  3.323872      765440
 vhamil_trace_mu_acc                     3.292281      732160
 soft_charge_sym                         3.035826          21
 depsum_sym                              2.854088          21
 depsum_two_bands_rholm_trace_m          2.601808      366080
 projlat_der                             2.513525          65
 fftwav_mpi                              2.486887      107777
 depsum_two_bands_rholm_trace_m          2.365262      332800
 fftwav                                  2.348855      107777
 fock_set_fsg_der                        2.321037           1
 potlok                                  2.270779          23
 m_alltoall_d                            2.066358       63536
 calc_dllmm_trans_and_overl_foc          1.723578      366080
 m_bcast_d                               1.605903        4591
 fft_and_gather                          1.569848        1495
 calc_dllmm_trans_and_overl_foc          1.566918      332800
 redis_pw_over_bands                     1.502728          21
 redis_pw_all                            1.502712          20
 fftbrc_mpi                              1.496140         353
 fftbas_plan_mpi                         1.495898         353
 strenl                                  1.231494           1
 fock_set_fsg                            1.228898           1
 map_forward                             1.226278         334
 contraction                             1.210294      299520
 m_alltoallv_z                           1.071131         397
 acc_cufft_makeplans                     1.018416           5
 eccp                                    0.901663        5850
 newband                                 0.894318        2607
 vnlac0_acc                              0.817563        6442
 ggaall_grid                             0.795364          24
 set_dd_paw                              0.746273          24
 w1_copy                                 0.633119      111171
 fock_ace_acc_apply                      0.616039         446
 map_scatter                             0.393615         397
 reduce                                  0.288179        1430
 pw_charge                               0.287700       10752
 fock_ace_construct                      0.271337           1
 phase                                   0.258097        3316
 map_backward                            0.250489         372
 depsum_two_bands_rholm_trace_m          0.239341       33280
 depsum_two_bands_rholm_trace_m          0.235178       33280
 m_bcast_z                               0.233907        5402
 hamiltmu                                0.214965        2282
 choleski                                0.203877        1430
 orth1                                   0.173082       11136
 proj1_acc                               0.172297        3380
 overl                                   0.156975        7944
 calc_dllmm_trans_and_overl_foc          0.154377       33280
 apply_gfac_der_mu                       0.146435       33280
 apply_gfac_weight_mu                    0.121323       33280
 fftext_mpi                              0.114668        6572
 hamilt_local                            0.108642        1430
 kinhamil                                0.105076        3712
 overl1                                  0.095191        5142
 m_ibcast_z_from                         0.077793      154440
 proall                                  0.066205           1
 m_ireduce_z_to                          0.056634      137280
 fornl                                   0.050712           1
 w1_projall                              0.039048        1632
 w1_dot                                  0.038998        1430
 projmu_acc                              0.037333        1632
 ggemm                                   0.035551        2932
 acc_init_cublas                         0.033069           1
 setdij_                                 0.032905          50
 vhamil                                  0.032782        3712
 setup_precond                           0.024498         650
 augmentation_charge                     0.022738          21
 proj                                    0.020579          65
 acc_init_cusolver                       0.018522           1
 projxyz                                 0.017295          65
 rspher_all                              0.015551          10
 densta                                  0.015291          32
 fft_gq                                  0.012765          21
 w1_dscal                                0.012720        1300
 apply_precond                           0.010997        1632
 map_gather                              0.007849         397
 inisym                                  0.004464           1
 pothar                                  0.003840          23
 dfftw_execute                           0.003795         129
 waitred                                 0.003244        1430
 waitgth                                 0.003108        1430
 fordep                                  0.002951           1
 w1_daxpy                                0.002825         446
 wrk_deallocate                          0.001244           1
 forloc                                  0.001021           1
 fewald                                  0.000804           1
 stufak                                  0.000587           1
 strehar                                 0.000387           1
 strelo                                  0.000369           1
 truncate_high_frequency_w1              0.000325        2932
 forhar                                  0.000317           1
 strkin                                  0.000223           1
 rsp                                     0.000173           1
 posmap                                  0.000041           2
 rcp                                     0.000027           1
 crpa_reader                             0.000025           1
 set_dd_magatom                          0.000008           2
 shift_bands_between_low_high            0.000007          65
 vectorpot                               0.000004           1
 potlok_metagga                          0.000000          23
 rotate_active_occupied_orbital          0.000000           1
 ---------------------------------------------------------------
 
Profiling took   1.405210  0.917283  0.003784  0.003705 seconds
Profiling took   0.818645 seconds
