<?xml version="1.0" encoding="ISO-8859-1"?>
<modeling>
 <generator>
  <i name="program" type="string">vasp </i>
  <i name="version" type="string">6.3.2  </i>
  <i name="subversion" type="string">27Jun22 (build Jan 18 2024 14:18:24) complex                          parallel </i>
  <i name="platform" type="string">LinuxNV_CrayMPICH </i>
  <i name="date" type="string">2024 05 26 </i>
  <i name="time" type="string">12:37:27 </i>
 </generator>
 <incar>
  <i type="string" name="SYSTEM">B12BeN2</i>
  <i type="int" name="ISTART">     0</i>
  <i type="string" name="PREC">Accurate</i>
  <i type="string" name="ALGO">All</i>
  <i type="int" name="ICHARG">     2</i>
  <i type="int" name="IBRION">     2</i>
  <i name="EDIFF">      0.00001000</i>
  <i name="EDIFFG">     -0.01000000</i>
  <i type="int" name="NSW">     0</i>
  <i type="int" name="ISIF">     3</i>
  <i name="ENCUT">    500.00000000</i>
  <i type="int" name="ISMEAR">     0</i>
  <i name="SIGMA">      0.01000000</i>
  <i type="logical" name="LWAVE"> T  </i>
  <i type="logical" name="LCHARG"> F  </i>
  <i name="HFSCREEN">      0.20000000</i>
  <i type="logical" name="LHFCALC"> T  </i>
  <i type="string" name="GGA">PE</i>
  <i name="AEXX">      0.25000000</i>
 </incar>
 <primitive_cell>
  <structure name="primitive_cell" >
   <crystal>
    <varray name="basis" >
     <v>       5.21128944      -0.00183198      -0.00132293 </v>
     <v>      -2.35472141       4.64895989       0.00132293 </v>
     <v>      -2.35471712       1.44743372       4.41788713 </v>
    </varray>
    <i name="volume">    106.99348123 </i>
    <varray name="rec_basis" >
     <v>       0.19194314       0.09720011       0.07045927 </v>
     <v>       0.00005775       0.21515118      -0.07045927 </v>
     <v>       0.00005746      -0.00003532       0.22639474 </v>
    </varray>
   </crystal>
   <varray name="positions" >
    <v>       0.49999994       0.49999994       0.50000000 </v>
    <v>       0.66934316       0.00325553       0.00325509 </v>
    <v>       0.99674570       0.33065808       0.00325535 </v>
    <v>       0.32396096       0.19732857       0.19732731 </v>
    <v>       0.80267307       0.67604060       0.19732743 </v>
    <v>       0.19732817       0.80267348       0.32396087 </v>
    <v>       0.99674512       0.00325603       0.33065728 </v>
    <v>       0.00325603       0.99674512       0.66934272 </v>
    <v>       0.80267348       0.19732817       0.67603913 </v>
    <v>       0.19732857       0.32396096       0.80267269 </v>
    <v>       0.67604060       0.80267307       0.80267257 </v>
    <v>       0.00325553       0.66934316       0.99674491 </v>
    <v>       0.33065808       0.99674570       0.99674465 </v>
    <v>       0.62342718       0.37657444       0.37657565 </v>
    <v>       0.37657444       0.62342718       0.62342435 </v>
   </varray>
  </structure>
  <varray name="primitive_index" >
   <v type="int" >        1 </v>
   <v type="int" >        2 </v>
   <v type="int" >        3 </v>
   <v type="int" >        4 </v>
   <v type="int" >        5 </v>
   <v type="int" >        6 </v>
   <v type="int" >        7 </v>
   <v type="int" >        8 </v>
   <v type="int" >        9 </v>
   <v type="int" >       10 </v>
   <v type="int" >       11 </v>
   <v type="int" >       12 </v>
   <v type="int" >       13 </v>
   <v type="int" >       14 </v>
   <v type="int" >       15 </v>
  </varray>
 </primitive_cell>
 <kpoints>
  <generation param="Gamma">
   <v type="int" name="divisions">       8        8        8 </v>
   <v name="usershift">      0.00000000       0.00000000       0.00000000 </v>
   <v name="genvec1">      0.12500000      -0.00000000       0.00000000 </v>
   <v name="genvec2">     -0.00000000       0.12500000      -0.00000000 </v>
   <v name="genvec3">      0.00000000      -0.00000000       0.12500000 </v>
   <v name="shift">      0.00000000       0.00000000       0.00000000 </v>
  </generation>
  <varray name="kpointlist" >
   <v>       0.00000000       0.00000000       0.00000000 </v>
   <v>       0.12500000       0.00000000       0.00000000 </v>
   <v>       0.25000000       0.00000000       0.00000000 </v>
   <v>       0.37500000       0.00000000       0.00000000 </v>
   <v>       0.50000000       0.00000000       0.00000000 </v>
   <v>       0.12500000       0.12500000       0.00000000 </v>
   <v>       0.25000000       0.12500000       0.00000000 </v>
   <v>       0.37500000       0.12500000       0.00000000 </v>
   <v>       0.50000000       0.12500000       0.00000000 </v>
   <v>      -0.37500000       0.12500000       0.00000000 </v>
   <v>      -0.25000000       0.12500000       0.00000000 </v>
   <v>      -0.12500000       0.12500000       0.00000000 </v>
   <v>       0.25000000       0.25000000       0.00000000 </v>
   <v>       0.37500000       0.25000000       0.00000000 </v>
   <v>       0.50000000       0.25000000       0.00000000 </v>
   <v>      -0.37500000       0.25000000       0.00000000 </v>
   <v>      -0.25000000       0.25000000       0.00000000 </v>
   <v>       0.37500000       0.37500000       0.00000000 </v>
   <v>       0.50000000       0.37500000       0.00000000 </v>
   <v>      -0.37500000       0.37500000       0.00000000 </v>
   <v>       0.50000000       0.50000000       0.00000000 </v>
   <v>       0.12500000       0.12500000       0.12500000 </v>
   <v>       0.25000000       0.12500000       0.12500000 </v>
   <v>       0.37500000       0.12500000       0.12500000 </v>
   <v>       0.50000000       0.12500000       0.12500000 </v>
   <v>      -0.37500000       0.12500000       0.12500000 </v>
   <v>      -0.25000000       0.12500000       0.12500000 </v>
   <v>      -0.12500000       0.12500000       0.12500000 </v>
   <v>       0.12500000       0.25000000       0.12500000 </v>
   <v>       0.25000000       0.25000000       0.12500000 </v>
   <v>       0.37500000       0.25000000       0.12500000 </v>
   <v>       0.50000000       0.25000000       0.12500000 </v>
   <v>      -0.37500000       0.25000000       0.12500000 </v>
   <v>      -0.25000000       0.25000000       0.12500000 </v>
   <v>       0.12500000       0.37500000       0.12500000 </v>
   <v>       0.25000000       0.37500000       0.12500000 </v>
   <v>       0.37500000       0.37500000       0.12500000 </v>
   <v>       0.50000000       0.37500000       0.12500000 </v>
   <v>      -0.37500000       0.37500000       0.12500000 </v>
   <v>       0.12500000       0.50000000       0.12500000 </v>
   <v>       0.25000000       0.50000000       0.12500000 </v>
   <v>       0.37500000       0.50000000       0.12500000 </v>
   <v>       0.50000000       0.50000000       0.12500000 </v>
   <v>       0.25000000      -0.37500000       0.12500000 </v>
   <v>       0.37500000      -0.37500000       0.12500000 </v>
   <v>       0.25000000      -0.25000000       0.12500000 </v>
   <v>       0.25000000       0.25000000       0.25000000 </v>
   <v>       0.37500000       0.25000000       0.25000000 </v>
   <v>       0.50000000       0.25000000       0.25000000 </v>
   <v>      -0.37500000       0.25000000       0.25000000 </v>
   <v>      -0.25000000       0.25000000       0.25000000 </v>
   <v>       0.25000000       0.37500000       0.25000000 </v>
   <v>       0.37500000       0.37500000       0.25000000 </v>
   <v>       0.50000000       0.37500000       0.25000000 </v>
   <v>      -0.37500000       0.37500000       0.25000000 </v>
   <v>       0.25000000       0.50000000       0.25000000 </v>
   <v>       0.37500000       0.50000000       0.25000000 </v>
   <v>       0.50000000       0.50000000       0.25000000 </v>
   <v>       0.37500000      -0.37500000       0.25000000 </v>
   <v>       0.37500000       0.37500000       0.37500000 </v>
   <v>       0.50000000       0.37500000       0.37500000 </v>
   <v>      -0.37500000       0.37500000       0.37500000 </v>
   <v>       0.37500000       0.50000000       0.37500000 </v>
   <v>       0.50000000       0.50000000       0.37500000 </v>
   <v>       0.50000000       0.50000000       0.50000000 </v>
  </varray>
  <varray name="weights" >
   <v>       0.00195313 </v>
   <v>       0.01171875 </v>
   <v>       0.01171875 </v>
   <v>       0.01171875 </v>
   <v>       0.00585938 </v>
   <v>       0.01171875 </v>
   <v>       0.02343750 </v>
   <v>       0.02343750 </v>
   <v>       0.02343750 </v>
   <v>       0.02343750 </v>
   <v>       0.02343750 </v>
   <v>       0.01171875 </v>
   <v>       0.01171875 </v>
   <v>       0.02343750 </v>
   <v>       0.02343750 </v>
   <v>       0.02343750 </v>
   <v>       0.01171875 </v>
   <v>       0.01171875 </v>
   <v>       0.02343750 </v>
   <v>       0.01171875 </v>
   <v>       0.00585938 </v>
   <v>       0.01171875 </v>
   <v>       0.01171875 </v>
   <v>       0.01171875 </v>
   <v>       0.01171875 </v>
   <v>       0.01171875 </v>
   <v>       0.01171875 </v>
   <v>       0.00390625 </v>
   <v>       0.02343750 </v>
   <v>       0.02343750 </v>
   <v>       0.02343750 </v>
   <v>       0.02343750 </v>
   <v>       0.02343750 </v>
   <v>       0.01171875 </v>
   <v>       0.02343750 </v>
   <v>       0.02343750 </v>
   <v>       0.02343750 </v>
   <v>       0.02343750 </v>
   <v>       0.01171875 </v>
   <v>       0.01171875 </v>
   <v>       0.02343750 </v>
   <v>       0.02343750 </v>
   <v>       0.01171875 </v>
   <v>       0.02343750 </v>
   <v>       0.01171875 </v>
   <v>       0.01171875 </v>
   <v>       0.01171875 </v>
   <v>       0.01171875 </v>
   <v>       0.01171875 </v>
   <v>       0.01171875 </v>
   <v>       0.00390625 </v>
   <v>       0.02343750 </v>
   <v>       0.02343750 </v>
   <v>       0.02343750 </v>
   <v>       0.01171875 </v>
   <v>       0.01171875 </v>
   <v>       0.02343750 </v>
   <v>       0.01171875 </v>
   <v>       0.01171875 </v>
   <v>       0.01171875 </v>
   <v>       0.01171875 </v>
   <v>       0.00390625 </v>
   <v>       0.01171875 </v>
   <v>       0.01171875 </v>
   <v>       0.00195313 </v>
  </varray>
 </kpoints>
 <parameters>
  <separator name="general" >
   <i type="string" name="SYSTEM">B12BeN2</i>
   <i type="logical" name="LCOMPAT"> F  </i>
  </separator>
  <separator name="electronic" >
   <i type="string" name="PREC">accura</i>
   <i name="ENMAX">    500.00000000</i>
   <i name="ENAUG">    627.11200000</i>
   <i name="EDIFF">      0.00001000</i>
   <i type="int" name="IALGO">    58</i>
   <i type="int" name="IWAVPR">    10</i>
   <i type="int" name="NBANDS">    48</i>
   <i type="int" name="NBANDSLOW">    -1</i>
   <i type="int" name="NBANDSHIGH">    -1</i>
   <i name="NELECT">     48.00000000</i>
   <i type="int" name="TURBO">     0</i>
   <i type="int" name="IRESTART">     0</i>
   <i type="int" name="NREBOOT">     0</i>
   <i type="int" name="NMIN">     0</i>
   <i name="EREF">      0.00000000</i>
   <separator name="electronic smearing" >
    <i type="int" name="ISMEAR">     0</i>
    <i name="SIGMA">      0.01000000</i>
    <i name="KSPACING">      0.50000000</i>
    <i type="logical" name="KGAMMA"> T  </i>
    <i type="logical" name="KBLOWUP"> T  </i>
   </separator>
   <separator name="electronic projectors" >
    <i type="logical" name="LREAL"> F  </i>
    <v name="ROPT">      0.00000000      0.00000000      0.00000000</v>
    <i type="int" name="LMAXPAW">  -100</i>
    <i type="int" name="LMAXMIX">     2</i>
    <i type="logical" name="NLSPLINE"> F  </i>
   </separator>
   <separator name="electronic startup" >
    <i type="int" name="ISTART">     0</i>
    <i type="int" name="ICHARG">     2</i>
    <i type="int" name="INIWAV">     1</i>
   </separator>
   <separator name="electronic spin" >
    <i type="int" name="ISPIN">     1</i>
    <i type="logical" name="LNONCOLLINEAR"> F  </i>
    <v name="MAGMOM">      1.00000000      1.00000000      1.00000000      1.00000000      1.00000000      1.00000000      1.00000000      1.00000000      1.00000000      1.00000000      1.00000000      1.00000000      1.00000000      1.00000000      1.00000000</v>
    <i name="NUPDOWN">     -1.00000000</i>
    <i type="logical" name="LSORBIT"> F  </i>
    <v name="SAXIS">      0.00000000      0.00000000      1.00000000</v>
    <i type="logical" name="LSPIRAL"> F  </i>
    <v name="QSPIRAL">      0.00000000      0.00000000      0.00000000</v>
    <i type="logical" name="LZEROZ"> F  </i>
   </separator>
   <separator name="electronic exchange-correlation" >
    <i type="logical" name="LASPH"> F  </i>
    <i type="logical" name="LMETAGGA"> F  </i>
   </separator>
   <separator name="electronic convergence" >
    <i type="int" name="NELM">    60</i>
    <i type="int" name="NELMDL">    -5</i>
    <i type="int" name="NELMIN">     2</i>
    <i name="ENINI">    500.00000000</i>
    <separator name="electronic convergence detail" >
     <i type="logical" name="LDIAG"> T  </i>
     <i type="logical" name="LSUBROT"> F  </i>
     <i name="WEIMIN">      0.00000000</i>
     <i name="EBREAK">      0.00000005</i>
     <i name="DEPER">      0.30000000</i>
     <i type="int" name="NRMM">     4</i>
     <i name="TIME">      0.40000000</i>
    </separator>
   </separator>
   <separator name="electronic mixer" >
    <i name="AMIX">      0.40000000</i>
    <i name="BMIX">      1.00000000</i>
    <i name="AMIN">      0.10000000</i>
    <i name="AMIX_MAG">      1.60000000</i>
    <i name="BMIX_MAG">      1.00000000</i>
    <separator name="electronic mixer details" >
     <i type="int" name="IMIX">     4</i>
     <i type="logical" name="MIXFIRST"> F  </i>
     <i type="int" name="MAXMIX">   -45</i>
     <i name="WC">    100.00000000</i>
     <i type="int" name="INIMIX">     1</i>
     <i type="int" name="MIXPRE">     1</i>
     <i type="int" name="MREMOVE">     5</i>
    </separator>
   </separator>
   <separator name="electronic dipolcorrection" >
    <i type="logical" name="LDIPOL"> F  </i>
    <i type="logical" name="LMONO"> F  </i>
    <i type="int" name="IDIPOL">     0</i>
    <i name="EPSILON">      1.00000000</i>
    <v name="DIPOL">   -100.00000000   -100.00000000   -100.00000000</v>
    <i name="EFIELD">      0.00000000</i>
   </separator>
  </separator>
  <separator name="grids" >
   <i type="int" name="NGX">    40</i>
   <i type="int" name="NGY">    40</i>
   <i type="int" name="NGZ">    40</i>
   <i type="int" name="NGXF">    80</i>
   <i type="int" name="NGYF">    80</i>
   <i type="int" name="NGZF">    80</i>
   <i type="logical" name="ADDGRID"> F  </i>
  </separator>
  <separator name="ionic" >
   <i type="int" name="NSW">     0</i>
   <i type="int" name="IBRION">    -1</i>
   <i type="int" name="MDALGO">     0</i>
   <i type="int" name="ISIF">     3</i>
   <i name="PSTRESS">      0.00000000</i>
   <i name="EDIFFG">     -0.01000000</i>
   <i type="int" name="NFREE">     1</i>
   <i name="POTIM">      0.50000000</i>
   <i name="SMASS">     -3.00000000</i>
   <i name="SCALEE">      1.00000000</i>
  </separator>
  <separator name="ionic md" >
   <i name="TEBEG">      0.00010000</i>
   <i name="TEEND">      0.00010000</i>
   <i type="int" name="NBLOCK">     1</i>
   <i type="int" name="KBLOCK">     1</i>
   <i type="int" name="NPACO">   256</i>
   <i name="APACO">     10.00000000</i>
  </separator>
  <separator name="symmetry" >
   <i type="int" name="ISYM">     3</i>
   <i name="SYMPREC">      0.00001000</i>
  </separator>
  <separator name="dos" >
   <i type="int" name="LORBIT">     0</i>
   <v name="RWIGS">     -1.00000000     -1.00000000     -1.00000000</v>
   <i type="int" name="NEDOS">   301</i>
   <i name="EMIN">     10.00000000</i>
   <i name="EMAX">    -10.00000000</i>
   <i name="EFERMI">      0.00000000</i>
  </separator>
  <separator name="writing" >
   <i type="int" name="NWRITE">     2</i>
   <i type="logical" name="LWAVE"> T  </i>
   <i type="logical" name="LDOWNSAMPLE"> F  </i>
   <i type="logical" name="LCHARG"> F  </i>
   <i type="logical" name="LPARD"> F  </i>
   <i type="logical" name="LVTOT"> F  </i>
   <i type="logical" name="LVHAR"> F  </i>
   <i type="logical" name="LELF"> F  </i>
   <i type="logical" name="LOPTICS"> F  </i>
   <v name="STM">      0.00000000      0.00000000      0.00000000      0.00000000      0.00000000      0.00000000      0.00000000</v>
  </separator>
  <separator name="performance" >
   <i type="int" name="NPAR">    24</i>
   <i type="int" name="NSIM">     4</i>
   <i type="int" name="NBLK">    -1</i>
   <i type="logical" name="LPLANE"> T  </i>
   <i type="logical" name="LSCALAPACK"> T  </i>
   <i type="logical" name="LSCAAWARE"> F  </i>
   <i type="logical" name="LSCALU"> F  </i>
   <i type="logical" name="LASYNC"> F  </i>
   <i type="logical" name="LORBITALREAL"> F  </i>
  </separator>
  <separator name="miscellaneous" >
   <i type="int" name="IDIOT">     3</i>
   <i type="int" name="PHON_NSTRUCT">    -1</i>
   <i type="logical" name="LMUSIC"> F  </i>
   <v name="POMASS">      9.01300000     10.81100000     14.00100000</v>
   <v name="DARWINR">      0.00000000      0.00000000      0.00000000</v>
   <v name="DARWINV">      1.00000000      1.00000000      1.00000000</v>
   <i type="logical" name="LCORR"> T  </i>
  </separator>
  <i type="logical" name="GGA_COMPAT"> T  </i>
  <i type="logical" name="LBERRY"> F  </i>
  <i type="int" name="ICORELEVEL">     0</i>
  <i type="logical" name="LDAU"> F  </i>
  <i type="int" name="I_CONSTRAINED_M">     0</i>
  <separator name="electronic exchange-correlation" >
   <i type="string" name="GGA">PE</i>
   <i type="int" name="VOSKOWN">     0</i>
   <i type="logical" name="LHFCALC"> T  </i>
   <i type="string" name="PRECFOCK">normal</i>
   <i type="logical" name="LSYMGRAD"> F  </i>
   <i type="logical" name="LHFONE"> F  </i>
   <i type="logical" name="LRHFCALC"> F  </i>
   <i type="logical" name="LTHOMAS"> F  </i>
   <i type="logical" name="LMODELHF"> F  </i>
   <i type="logical" name="LFOCKACE"> T  </i>
   <i name="ENCUT4O">     -1.00000000</i>
   <i type="int" name="EXXOEP">     0</i>
   <i type="int" name="FOURORBIT">     0</i>
   <i name="AEXX">      0.25000000</i>
   <i name="HFALPHA">     -1.00000000</i>
   <i name="MCALPHA">      0.00000000</i>
   <i name="ALDAX">      0.75000000</i>
   <i name="AGGAX">      0.75000000</i>
   <i name="ALDAC">      1.00000000</i>
   <i name="AGGAC">      1.00000000</i>
   <i type="int" name="NKREDX">     1</i>
   <i type="int" name="NKREDY">     1</i>
   <i type="int" name="NKREDZ">     1</i>
   <i type="logical" name="SHIFTRED"> F  </i>
   <i type="logical" name="ODDONLY"> F  </i>
   <i type="logical" name="EVENONLY"> F  </i>
   <i type="int" name="LMAXFOCK">     4</i>
   <i type="int" name="NMAXFOCKAE">     1</i>
   <i type="logical" name="LFOCKAEDFT"> F  </i>
   <i name="HFSCREEN">      0.20000000</i>
   <i name="HFSCREENC">      0.20000000</i>
   <i type="int" name="NBANDSGWLOW">     1</i>
  </separator>
  <separator name="vdW DFT" >
   <i type="logical" name="LUSE_VDW"> F  </i>
   <i name="Zab_VDW">     -0.84910000</i>
   <i name="PARAM1">      0.12340000</i>
   <i name="PARAM2">      1.00000000</i>
   <i name="PARAM3">      0.00000000</i>
  </separator>
  <separator name="model GW" >
   <i type="int" name="MODEL_GW">     0</i>
   <i name="MODEL_EPS0">      4.27973925</i>
   <i name="MODEL_ALPHA">      1.00000000</i>
  </separator>
  <separator name="linear response parameters" >
   <i type="logical" name="LEPSILON"> F  </i>
   <i type="logical" name="LRPA"> F  </i>
   <i type="logical" name="LNABLA"> F  </i>
   <i type="logical" name="LVEL"> F  </i>
   <i name="CSHIFT">      0.10000000</i>
   <i name="OMEGAMAX">     -1.00000000</i>
   <i name="DEG_THRESHOLD">      0.00200000</i>
   <i name="RTIME">     -0.10000000</i>
   <i name="WPLASMAI">      0.00000000</i>
   <v name="DFIELD">      0.00000000      0.00000000      0.00000000</v>
   <v name="WPLASMA">      0.00000000      0.00000000      0.00000000      0.00000000      0.00000000      0.00000000      0.00000000      0.00000000      0.00000000</v>
  </separator>
  <separator name="orbital magnetization" >
   <i type="logical" name="NUCIND"> F  </i>
   <v name="MAGPOS">      0.00000000      0.00000000      0.00000000</v>
   <i type="logical" name="LNICSALL"> T  </i>
   <i type="logical" name="ORBITALMAG"> F  </i>
   <i type="logical" name="LMAGBLOCH"> F  </i>
   <i type="logical" name="LCHIMAG"> F  </i>
   <i type="logical" name="LGAUGE"> T  </i>
   <i type="int" name="MAGATOM">     0</i>
   <v name="MAGDIPOL">      0.00000000      0.00000000      0.00000000</v>
   <v name="AVECCONST">      0.00000000      0.00000000      0.00000000</v>
  </separator>
  <separator name="response functions" >
   <i type="logical" name="LFINITE_TEMPERATURE"> F  </i>
   <i type="logical" name="LADDER"> F  </i>
   <i type="logical" name="LRPAFORCE"> F  </i>
   <i type="logical" name="LFXC"> F  </i>
   <i type="logical" name="LHARTREE"> T  </i>
   <i type="int" name="IBSE">     0</i>
   <v type="int" name="KPOINT">    -1     0     0     0</v>
   <i type="logical" name="LTCTC"> F  </i>
   <i type="logical" name="LTCTE"> F  </i>
   <i type="logical" name="LTETE"> F  </i>
   <i type="logical" name="LTRIPLET"> F  </i>
   <i type="logical" name="LFXCEPS"> F  </i>
   <i type="logical" name="LFXHEG"> F  </i>
   <i type="int" name="NATURALO">     2</i>
   <i type="logical" name="LHOLEGF"> F  </i>
   <i type="logical" name="L2ORDER"> F  </i>
   <i type="logical" name="LDMP1"> F  </i>
   <i type="logical" name="LMP2LT"> F  </i>
   <i type="logical" name="LSMP2LT"> F  </i>
   <i type="logical" name="LGWLF"> F  </i>
   <i name="ENCUTGW">     -2.00000000</i>
   <i name="ENCUTGWSOFT">     -2.00000000</i>
   <i name="ENCUTLF">     -1.00000000</i>
   <i type="logical" name="LESF_SPLINES"> F  </i>
   <i type="int" name="LMAXMP2">    -1</i>
   <i name="SCISSOR">      0.00000000</i>
   <i type="int" name="NOMEGA">     0</i>
   <i type="int" name="NOMEGAR">     0</i>
   <i type="int" name="NBANDSGW">    -1</i>
   <i type="int" name="NBANDSO">    -1</i>
   <i type="int" name="NBANDSV">    -1</i>
   <i type="int" name="NELMGW">     1</i>
   <i type="int" name="NELMHF">     1</i>
   <i type="int" name="DIM">     3</i>
   <i type="int" name="IESPILON">     4</i>
   <i type="int" name="ANTIRES">     0</i>
   <i name="OMEGAMAX">    -30.00000000</i>
   <i name="OMEGAMIN">    -30.00000000</i>
   <i name="OMEGATL">   -200.00000000</i>
   <i type="int" name="OMEGAGRID">     0</i>
   <i name="CSHIFT">     -0.10000000</i>
   <i type="logical" name="LSELFENERGY"> F  </i>
   <i type="logical" name="LSPECTRAL"> F  </i>
   <i type="logical" name="LSPECTRALGW"> F  </i>
   <i type="logical" name="LSINGLES"> F  </i>
   <i type="logical" name="LFERMIGW"> F  </i>
   <i type="logical" name="ODDONLYGW"> F  </i>
   <i type="logical" name="EVENONLYGW"> F  </i>
   <i type="int" name="NKREDLFX">     1</i>
   <i type="int" name="NKREDLFY">     1</i>
   <i type="int" name="NKREDLFZ">     1</i>
   <i type="int" name="MAXMEM">  2800</i>
   <i type="int" name="TELESCOPE">     0</i>
   <i type="int" name="NTAUPAR">    -1</i>
   <i type="int" name="NOMEGAPAR">    -1</i>
   <i name="DAMP_NEWTON">      0.80000001</i>
   <i name="LAMBDA">      1.00000000</i>
  </separator>
  <separator name="External order field" >
   <i name="OFIELD_KAPPA">      0.00000000</i>
   <v name="OFIELD_K">      0.00000000      0.00000000      0.00000000</v>
   <i name="OFIELD_Q6_NEAR">      0.00000000</i>
   <i name="OFIELD_Q6_FAR">      0.00000000</i>
   <i name="OFIELD_A">      0.00000000</i>
  </separator>
  <separator name="optional k-points parameters" >
   <i type="int" name="KPOINTS_OPT_MODE">     1</i>
   <i type="logical" name="LKPOINTS_OPT"> F  </i>
  </separator>
 </parameters>
 <atominfo>
  <atoms>      15 </atoms>
  <types>       3 </types>
  <array name="atoms" >
   <dimension dim="1">ion</dimension>
   <field type="string">element</field>
   <field type="int">atomtype</field>
   <set>
    <rc><c>Be</c><c>   1</c></rc>
    <rc><c>B </c><c>   2</c></rc>
    <rc><c>B </c><c>   2</c></rc>
    <rc><c>B </c><c>   2</c></rc>
    <rc><c>B </c><c>   2</c></rc>
    <rc><c>B </c><c>   2</c></rc>
    <rc><c>B </c><c>   2</c></rc>
    <rc><c>B </c><c>   2</c></rc>
    <rc><c>B </c><c>   2</c></rc>
    <rc><c>B </c><c>   2</c></rc>
    <rc><c>B </c><c>   2</c></rc>
    <rc><c>B </c><c>   2</c></rc>
    <rc><c>B </c><c>   2</c></rc>
    <rc><c>N </c><c>   3</c></rc>
    <rc><c>N </c><c>   3</c></rc>
   </set>
  </array>
  <array name="atomtypes" >
   <dimension dim="1">type</dimension>
   <field type="int">atomspertype</field>
   <field type="string">element</field>
   <field>mass</field>
   <field>valence</field>
   <field type="string">pseudopotential</field>
   <set>
    <rc><c>   1</c><c>Be</c><c>      9.01300000</c><c>      2.00000000</c><c>  PAW_PBE Be 06Sep2000                  </c></rc>
    <rc><c>  12</c><c>B </c><c>     10.81100000</c><c>      3.00000000</c><c>  PAW_PBE B 06Sep2000                   </c></rc>
    <rc><c>   2</c><c>N </c><c>     14.00100000</c><c>      5.00000000</c><c>  PAW_PBE N 08Apr2002                   </c></rc>
   </set>
  </array>
 </atominfo>
 <structure name="initialpos" >
  <crystal>
   <varray name="basis" >
    <v>       5.21128944      -0.00183198      -0.00132293 </v>
    <v>      -2.35472141       4.64895989       0.00132293 </v>
    <v>      -2.35471712       1.44743372       4.41788713 </v>
   </varray>
   <i name="volume">    106.99348123 </i>
   <varray name="rec_basis" >
    <v>       0.19194314       0.09720011       0.07045927 </v>
    <v>       0.00005775       0.21515118      -0.07045927 </v>
    <v>       0.00005746      -0.00003532       0.22639474 </v>
   </varray>
  </crystal>
  <varray name="positions" >
   <v>       0.49999994       0.49999994       0.50000000 </v>
   <v>       0.66934316       0.00325553       0.00325509 </v>
   <v>       0.99674570       0.33065808       0.00325535 </v>
   <v>       0.32396096       0.19732857       0.19732731 </v>
   <v>       0.80267307       0.67604060       0.19732743 </v>
   <v>       0.19732817       0.80267348       0.32396087 </v>
   <v>       0.99674512       0.00325603       0.33065728 </v>
   <v>       0.00325603       0.99674512       0.66934272 </v>
   <v>       0.80267348       0.19732817       0.67603913 </v>
   <v>       0.19732857       0.32396096       0.80267269 </v>
   <v>       0.67604060       0.80267307       0.80267257 </v>
   <v>       0.00325553       0.66934316       0.99674491 </v>
   <v>       0.33065808       0.99674570       0.99674465 </v>
   <v>       0.62342718       0.37657444       0.37657565 </v>
   <v>       0.37657444       0.62342718       0.62342435 </v>
  </varray>
 </structure>
 <calculation>
  <scstep>
   <time name="total">    5.91    4.32</time>
   <energy>
    <i name="alphaZ">    146.70650736 </i>
    <i name="ewald">  -1489.51874320 </i>
    <i name="hartreedc">   -205.10187421 </i>
    <i name="XCdc">    132.19009220 </i>
    <i name="pawpsdc">    947.12008062 </i>
    <i name="pawaedc">  -1227.31136974 </i>
    <i name="eentropy">     -0.00004353 </i>
    <i name="bandstr">     61.80455126 </i>
    <i name="atom">   1394.45731649 </i>
    <i name="e_fr_energy">   -239.65348275 </i>
    <i name="e_wo_entrp">   -239.65343922 </i>
    <i name="e_0_energy">   -239.65346099 </i>
   </energy>
  </scstep>
  <scstep>
   <time name="total">    6.09    3.98</time>
   <energy>
    <i name="e_fr_energy">   -424.96653709 </i>
    <i name="e_wo_entrp">   -424.96653709 </i>
    <i name="e_0_energy">   -424.96653709 </i>
   </energy>
  </scstep>
  <scstep>
   <time name="total">    5.98    3.93</time>
   <energy>
    <i name="e_fr_energy">   -431.19959715 </i>
    <i name="e_wo_entrp">   -431.19959715 </i>
    <i name="e_0_energy">   -431.19959715 </i>
   </energy>
  </scstep>
  <scstep>
   <time name="total">    4.99    3.26</time>
   <energy>
    <i name="e_fr_energy">   -431.23368541 </i>
    <i name="e_wo_entrp">   -431.23368541 </i>
    <i name="e_0_energy">   -431.23368541 </i>
   </energy>
  </scstep>
  <scstep>
   <time name="total">   57.79   52.39</time>
   <energy>
    <i name="e_fr_energy">   -129.09150492 </i>
    <i name="e_wo_entrp">   -129.09150492 </i>
    <i name="e_0_energy">   -129.09150492 </i>
   </energy>
  </scstep>
  <scstep>
   <time name="total">  108.18   99.41</time>
   <energy>
    <i name="e_fr_energy">   -114.33504004 </i>
    <i name="e_wo_entrp">   -114.33504004 </i>
    <i name="e_0_energy">   -114.33504004 </i>
   </energy>
  </scstep>
  <scstep>
   <time name="total">  108.24   99.75</time>
   <energy>
    <i name="e_fr_energy">   -119.71689380 </i>
    <i name="e_wo_entrp">   -119.71689380 </i>
    <i name="e_0_energy">   -119.71689380 </i>
   </energy>
  </scstep>
  <scstep>
   <time name="total">  108.42   99.58</time>
   <energy>
    <i name="e_fr_energy">   -120.47615927 </i>
    <i name="e_wo_entrp">   -120.47615927 </i>
    <i name="e_0_energy">   -120.47615927 </i>
   </energy>
  </scstep>
  <scstep>
   <time name="total">  110.14  100.44</time>
   <energy>
    <i name="e_fr_energy">   -120.70184717 </i>
    <i name="e_wo_entrp">   -120.70184717 </i>
    <i name="e_0_energy">   -120.70184717 </i>
   </energy>
  </scstep>
  <scstep>
   <time name="total">  108.67   99.76</time>
   <energy>
    <i name="e_fr_energy">   -120.73779507 </i>
    <i name="e_wo_entrp">   -120.73779507 </i>
    <i name="e_0_energy">   -120.73779507 </i>
   </energy>
  </scstep>
  <scstep>
   <time name="total">  109.99  100.11</time>
   <energy>
    <i name="e_fr_energy">   -120.74281829 </i>
    <i name="e_wo_entrp">   -120.74281829 </i>
    <i name="e_0_energy">   -120.74281829 </i>
   </energy>
  </scstep>
  <scstep>
   <time name="total">  107.59   99.98</time>
   <energy>
    <i name="e_fr_energy">   -120.74376047 </i>
    <i name="e_wo_entrp">   -120.74376047 </i>
    <i name="e_0_energy">   -120.74376047 </i>
   </energy>
  </scstep>
  <scstep>
   <time name="total">  109.04  100.13</time>
   <energy>
    <i name="e_fr_energy">   -120.74392174 </i>
    <i name="e_wo_entrp">   -120.74392174 </i>
    <i name="e_0_energy">   -120.74392174 </i>
   </energy>
  </scstep>
  <scstep>
   <time name="total">  108.99   99.95</time>
   <energy>
    <i name="e_fr_energy">   -120.74394928 </i>
    <i name="e_wo_entrp">   -120.74394928 </i>
    <i name="e_0_energy">   -120.74394928 </i>
   </energy>
  </scstep>
  <scstep>
   <time name="total">  161.63  148.95</time>
   <energy>
    <i name="alphaZ">    146.70650736 </i>
    <i name="ewald">  -1489.51874320 </i>
    <i name="hartreedc">   -266.77894483 </i>
    <i name="XCdc">    104.77797452 </i>
    <i name="pawpsdc">   5187.34721777 </i>
    <i name="pawaedc">  -5180.71581857 </i>
    <i name="eentropy">     -0.00000000 </i>
    <i name="bandstr">   -113.56219271 </i>
    <i name="atom">   1394.45731649 </i>
    <i name="e_fr_energy">   -120.74395453 </i>
    <i name="e_wo_entrp">   -120.74395453 </i>
    <i name="e_0_energy">   -120.74395453 </i>
   </energy>
  </scstep>
  <structure>
   <crystal>
    <varray name="basis" >
     <v>       5.21128944      -0.00183198      -0.00132293 </v>
     <v>      -2.35472141       4.64895989       0.00132293 </v>
     <v>      -2.35471712       1.44743372       4.41788713 </v>
    </varray>
    <i name="volume">    106.99348123 </i>
    <varray name="rec_basis" >
     <v>       0.19194314       0.09720011       0.07045927 </v>
     <v>       0.00005775       0.21515118      -0.07045927 </v>
     <v>       0.00005746      -0.00003532       0.22639474 </v>
    </varray>
   </crystal>
   <varray name="positions" >
    <v>       0.49999994       0.49999994       0.50000000 </v>
    <v>       0.66934316       0.00325553       0.00325509 </v>
    <v>       0.99674570       0.33065808       0.00325535 </v>
    <v>       0.32396096       0.19732857       0.19732731 </v>
    <v>       0.80267307       0.67604060       0.19732743 </v>
    <v>       0.19732817       0.80267348       0.32396087 </v>
    <v>       0.99674512       0.00325603       0.33065728 </v>
    <v>       0.00325603       0.99674512       0.66934272 </v>
    <v>       0.80267348       0.19732817       0.67603913 </v>
    <v>       0.19732857       0.32396096       0.80267269 </v>
    <v>       0.67604060       0.80267307       0.80267257 </v>
    <v>       0.00325553       0.66934316       0.99674491 </v>
    <v>       0.33065808       0.99674570       0.99674465 </v>
    <v>       0.62342718       0.37657444       0.37657565 </v>
    <v>       0.37657444       0.62342718       0.62342435 </v>
   </varray>
  </structure>
  <varray name="forces" >
   <v>       0.00000000       0.00000000       0.00000000 </v>
   <v>       0.00134436      -0.00102650      -0.00074410 </v>
   <v>       0.00152293      -0.00073601      -0.00074410 </v>
   <v>       0.00163380       0.00173557       0.00125810 </v>
   <v>      -0.00081085      -0.00224143       0.00125810 </v>
   <v>       0.00081085      -0.00049843       0.00252159 </v>
   <v>       0.00152293      -0.00093614      -0.00046802 </v>
   <v>      -0.00152293       0.00093614       0.00046802 </v>
   <v>      -0.00081085       0.00049843      -0.00252159 </v>
   <v>       0.00081085       0.00224143      -0.00125810 </v>
   <v>      -0.00163380      -0.00173557      -0.00125810 </v>
   <v>      -0.00152293       0.00073601       0.00074410 </v>
   <v>      -0.00134436       0.00102650       0.00074410 </v>
   <v>      -0.00665235       0.00408917       0.00296419 </v>
   <v>       0.00665235      -0.00408917      -0.00296419 </v>
  </varray>
  <varray name="stress" >
   <v>       0.29156569      -0.22589787      -0.16375089 </v>
   <v>      -0.22589787       0.06292843       0.10065692 </v>
   <v>      -0.16375089       0.10065692      -0.00296497 </v>
  </varray>
  <energy>
   <i name="e_fr_energy">   -120.74395453 </i>
   <i name="e_wo_entrp">   -120.74395453 </i>
   <i name="e_0_energy">   -120.74395453 </i>
  </energy>
  <time name="totalsc"> 1312.66 1205.96</time>
  <eigenvalues>
   <array>
    <dimension dim="1">band</dimension>
    <dimension dim="2">kpoint</dimension>
    <dimension dim="3">spin</dimension>
    <field>eigene</field>
    <field>occ</field>
    <set>
     <set comment="spin 1">
      <set comment="kpoint 1">
       <r>  -14.6107    1.0000 </r>
       <r>  -13.4476    1.0000 </r>
       <r>  -10.3033    1.0000 </r>
       <r>   -6.5274    1.0000 </r>
       <r>   -6.5273    1.0000 </r>
       <r>   -5.8495    1.0000 </r>
       <r>   -4.9943    1.0000 </r>
       <r>   -4.9943    1.0000 </r>
       <r>   -3.1380    1.0000 </r>
       <r>   -2.7070    1.0000 </r>
       <r>   -2.7069    1.0000 </r>
       <r>   -2.0478    1.0000 </r>
       <r>   -2.0477    1.0000 </r>
       <r>   -1.7413    1.0000 </r>
       <r>   -1.0707    1.0000 </r>
       <r>    1.2546    1.0000 </r>
       <r>    1.2546    1.0000 </r>
       <r>    2.2970    1.0000 </r>
       <r>    2.7149    1.0000 </r>
       <r>    2.7439    1.0000 </r>
       <r>    2.7439    1.0000 </r>
       <r>    3.2799    1.0000 </r>
       <r>    4.4407    1.0000 </r>
       <r>    4.4408    1.0000 </r>
       <r>   11.7359    0.0000 </r>
       <r>   11.7785    0.0000 </r>
       <r>   11.7785    0.0000 </r>
       <r>   12.6314    0.0000 </r>
       <r>   12.6314    0.0000 </r>
       <r>   13.6016    0.0000 </r>
       <r>   13.7640    0.0000 </r>
       <r>   13.9909    0.0000 </r>
       <r>   13.9909    0.0000 </r>
       <r>   14.6876    0.0000 </r>
       <r>   15.4769    0.0000 </r>
       <r>   15.6875    0.0000 </r>
       <r>   15.6875    0.0000 </r>
       <r>   15.9933    0.0000 </r>
       <r>   16.2419    0.0000 </r>
       <r>   16.3218    0.0000 </r>
       <r>   16.3218    0.0000 </r>
       <r>   17.2050    0.0000 </r>
       <r>   17.2050    0.0000 </r>
       <r>   17.5857    0.0000 </r>
       <r>   17.5857    0.0000 </r>
       <r>   18.8834    0.0000 </r>
       <r>   18.8895    0.0000 </r>
       <r>   19.9557    0.0000 </r>
      </set>
      <set comment="kpoint 2">
       <r>  -14.5622    1.0000 </r>
       <r>  -13.4784    1.0000 </r>
       <r>  -10.3943    1.0000 </r>
       <r>   -6.6308    1.0000 </r>
       <r>   -6.6014    1.0000 </r>
       <r>   -5.9683    1.0000 </r>
       <r>   -4.7749    1.0000 </r>
       <r>   -4.6136    1.0000 </r>
       <r>   -3.1469    1.0000 </r>
       <r>   -3.0029    1.0000 </r>
       <r>   -2.8303    1.0000 </r>
       <r>   -2.3358    1.0000 </r>
       <r>   -1.7638    1.0000 </r>
       <r>   -1.2610    1.0000 </r>
       <r>   -0.8703    1.0000 </r>
       <r>    1.0317    1.0000 </r>
       <r>    1.3929    1.0000 </r>
       <r>    2.3456    1.0000 </r>
       <r>    2.4131    1.0000 </r>
       <r>    2.5359    1.0000 </r>
       <r>    2.8514    1.0000 </r>
       <r>    3.3336    1.0000 </r>
       <r>    4.2792    1.0000 </r>
       <r>    4.4717    1.0000 </r>
       <r>   11.5513    0.0000 </r>
       <r>   11.5925    0.0000 </r>
       <r>   11.9181    0.0000 </r>
       <r>   12.2977    0.0000 </r>
       <r>   12.6924    0.0000 </r>
       <r>   13.1796    0.0000 </r>
       <r>   13.4803    0.0000 </r>
       <r>   13.8470    0.0000 </r>
       <r>   14.5235    0.0000 </r>
       <r>   14.6125    0.0000 </r>
       <r>   15.4417    0.0000 </r>
       <r>   15.5284    0.0000 </r>
       <r>   15.7790    0.0000 </r>
       <r>   16.1163    0.0000 </r>
       <r>   16.2349    0.0000 </r>
       <r>   16.4281    0.0000 </r>
       <r>   16.5422    0.0000 </r>
       <r>   16.9695    0.0000 </r>
       <r>   17.0479    0.0000 </r>
       <r>   17.7034    0.0000 </r>
       <r>   17.9653    0.0000 </r>
       <r>   19.0487    0.0000 </r>
       <r>   19.2584    0.0000 </r>
       <r>   19.4380    0.0000 </r>
      </set>
      <set comment="kpoint 3">
       <r>  -14.4277    1.0000 </r>
       <r>  -13.5665    1.0000 </r>
       <r>  -10.6200    1.0000 </r>
       <r>   -6.8155    1.0000 </r>
       <r>   -6.6230    1.0000 </r>
       <r>   -6.1745    1.0000 </r>
       <r>   -4.3269    1.0000 </r>
       <r>   -3.9768    1.0000 </r>
       <r>   -3.3260    1.0000 </r>
       <r>   -3.2943    1.0000 </r>
       <r>   -2.9427    1.0000 </r>
       <r>   -2.1538    1.0000 </r>
       <r>   -1.4987    1.0000 </r>
       <r>   -1.2373    1.0000 </r>
       <r>   -0.2577    1.0000 </r>
       <r>    1.2797    1.0000 </r>
       <r>    1.6376    1.0000 </r>
       <r>    1.6687    1.0000 </r>
       <r>    1.7137    1.0000 </r>
       <r>    2.4076    1.0000 </r>
       <r>    3.3063    1.0000 </r>
       <r>    3.3471    1.0000 </r>
       <r>    3.8181    1.0000 </r>
       <r>    4.5240    1.0000 </r>
       <r>   10.8779    0.0000 </r>
       <r>   11.0945    0.0000 </r>
       <r>   11.2795    0.0000 </r>
       <r>   11.8103    0.0000 </r>
       <r>   13.0700    0.0000 </r>
       <r>   13.1373    0.0000 </r>
       <r>   13.3478    0.0000 </r>
       <r>   13.8358    0.0000 </r>
       <r>   14.5915    0.0000 </r>
       <r>   14.7369    0.0000 </r>
       <r>   15.0343    0.0000 </r>
       <r>   15.2589    0.0000 </r>
       <r>   15.8724    0.0000 </r>
       <r>   16.0915    0.0000 </r>
       <r>   16.3522    0.0000 </r>
       <r>   16.6738    0.0000 </r>
       <r>   17.0002    0.0000 </r>
       <r>   17.4288    0.0000 </r>
       <r>   17.6060    0.0000 </r>
       <r>   18.2803    0.0000 </r>
       <r>   18.6679    0.0000 </r>
       <r>   19.1401    0.0000 </r>
       <r>   19.6360    0.0000 </r>
       <r>   20.1578    0.0000 </r>
      </set>
      <set comment="kpoint 4">
       <r>  -14.2456    1.0000 </r>
       <r>  -13.6961    1.0000 </r>
       <r>  -10.8504    1.0000 </r>
       <r>   -6.9518    1.0000 </r>
       <r>   -6.6221    1.0000 </r>
       <r>   -6.1915    1.0000 </r>
       <r>   -4.2023    1.0000 </r>
       <r>   -4.1449    1.0000 </r>
       <r>   -3.0823    1.0000 </r>
       <r>   -3.0175    1.0000 </r>
       <r>   -2.4425    1.0000 </r>
       <r>   -1.9442    1.0000 </r>
       <r>   -1.6438    1.0000 </r>
       <r>   -1.5224    1.0000 </r>
       <r>    0.5022    1.0000 </r>
       <r>    0.8418    1.0000 </r>
       <r>    1.1175    1.0000 </r>
       <r>    1.6228    1.0000 </r>
       <r>    1.9294    1.0000 </r>
       <r>    2.5231    1.0000 </r>
       <r>    3.1244    1.0000 </r>
       <r>    3.5009    1.0000 </r>
       <r>    3.5780    1.0000 </r>
       <r>    4.5495    1.0000 </r>
       <r>   10.0299    0.0000 </r>
       <r>   10.2096    0.0000 </r>
       <r>   10.5609    0.0000 </r>
       <r>   11.3779    0.0000 </r>
       <r>   13.4130    0.0000 </r>
       <r>   13.5365    0.0000 </r>
       <r>   13.6548    0.0000 </r>
       <r>   14.0719    0.0000 </r>
       <r>   14.3921    0.0000 </r>
       <r>   14.6970    0.0000 </r>
       <r>   14.7218    0.0000 </r>
       <r>   14.9990    0.0000 </r>
       <r>   15.8022    0.0000 </r>
       <r>   16.0702    0.0000 </r>
       <r>   16.9919    0.0000 </r>
       <r>   17.1440    0.0000 </r>
       <r>   17.4675    0.0000 </r>
       <r>   18.1681    0.0000 </r>
       <r>   18.2710    0.0000 </r>
       <r>   18.8054    0.0000 </r>
       <r>   19.1272    0.0000 </r>
       <r>   19.4896    0.0000 </r>
       <r>   19.9499    0.0000 </r>
       <r>   20.1600    0.0000 </r>
      </set>
      <set comment="kpoint 5">
       <r>  -14.1299    1.0000 </r>
       <r>  -13.7882    1.0000 </r>
       <r>  -10.9466    1.0000 </r>
       <r>   -6.9997    1.0000 </r>
       <r>   -6.6564    1.0000 </r>
       <r>   -6.1013    1.0000 </r>
       <r>   -4.4092    1.0000 </r>
       <r>   -4.1691    1.0000 </r>
       <r>   -2.9818    1.0000 </r>
       <r>   -2.4772    1.0000 </r>
       <r>   -2.3685    1.0000 </r>
       <r>   -2.0773    1.0000 </r>
       <r>   -1.5857    1.0000 </r>
       <r>   -1.3465    1.0000 </r>
       <r>   -0.1784    1.0000 </r>
       <r>    0.9676    1.0000 </r>
       <r>    1.2049    1.0000 </r>
       <r>    1.9350    1.0000 </r>
       <r>    1.9575    1.0000 </r>
       <r>    2.4195    1.0000 </r>
       <r>    2.8268    1.0000 </r>
       <r>    3.6299    1.0000 </r>
       <r>    3.6640    1.0000 </r>
       <r>    4.5454    1.0000 </r>
       <r>    9.6593    0.0000 </r>
       <r>    9.7440    0.0000 </r>
       <r>   10.3121    0.0000 </r>
       <r>   11.1880    0.0000 </r>
       <r>   13.5695    0.0000 </r>
       <r>   13.7143    0.0000 </r>
       <r>   13.8737    0.0000 </r>
       <r>   14.1667    0.0000 </r>
       <r>   14.1834    0.0000 </r>
       <r>   14.5830    0.0000 </r>
       <r>   14.8438    0.0000 </r>
       <r>   15.0800    0.0000 </r>
       <r>   15.5461    0.0000 </r>
       <r>   16.0441    0.0000 </r>
       <r>   17.1691    0.0000 </r>
       <r>   17.7760    0.0000 </r>
       <r>   18.0339    0.0000 </r>
       <r>   18.2527    0.0000 </r>
       <r>   18.5131    0.0000 </r>
       <r>   18.8432    0.0000 </r>
       <r>   19.0646    0.0000 </r>
       <r>   19.4786    0.0000 </r>
       <r>   19.5175    0.0000 </r>
       <r>   20.1860    0.0000 </r>
      </set>
      <set comment="kpoint 6">
       <r>  -14.4773    1.0000 </r>
       <r>  -13.5364    1.0000 </r>
       <r>  -10.5504    1.0000 </r>
       <r>   -6.8468    1.0000 </r>
       <r>   -6.5588    1.0000 </r>
       <r>   -6.0670    1.0000 </r>
       <r>   -4.2294    1.0000 </r>
       <r>   -4.1917    1.0000 </r>
       <r>   -3.4354    1.0000 </r>
       <r>   -3.1753    1.0000 </r>
       <r>   -2.8862    1.0000 </r>
       <r>   -2.1987    1.0000 </r>
       <r>   -1.8258    1.0000 </r>
       <r>   -1.0215    1.0000 </r>
       <r>   -0.7213    1.0000 </r>
       <r>    1.2836    1.0000 </r>
       <r>    1.5046    1.0000 </r>
       <r>    1.7989    1.0000 </r>
       <r>    1.9341    1.0000 </r>
       <r>    2.4328    1.0000 </r>
       <r>    2.9819    1.0000 </r>
       <r>    3.4519    1.0000 </r>
       <r>    4.3078    1.0000 </r>
       <r>    4.3878    1.0000 </r>
       <r>   11.1600    0.0000 </r>
       <r>   11.4895    0.0000 </r>
       <r>   11.5557    0.0000 </r>
       <r>   12.4450    0.0000 </r>
       <r>   12.4586    0.0000 </r>
       <r>   12.9897    0.0000 </r>
       <r>   13.4737    0.0000 </r>
       <r>   13.8278    0.0000 </r>
       <r>   14.5916    0.0000 </r>
       <r>   14.5975    0.0000 </r>
       <r>   15.1404    0.0000 </r>
       <r>   15.4296    0.0000 </r>
       <r>   15.8535    0.0000 </r>
       <r>   16.0980    0.0000 </r>
       <r>   16.4061    0.0000 </r>
       <r>   16.4968    0.0000 </r>
       <r>   16.8450    0.0000 </r>
       <r>   17.1113    0.0000 </r>
       <r>   17.4048    0.0000 </r>
       <r>   17.6385    0.0000 </r>
       <r>   18.4850    0.0000 </r>
       <r>   19.7485    0.0000 </r>
       <r>   19.8517    0.0000 </r>
       <r>   20.2620    0.0000 </r>
      </set>
      <set comment="kpoint 7">
       <r>  -14.3196    1.0000 </r>
       <r>  -13.6433    1.0000 </r>
       <r>  -10.7713    1.0000 </r>
       <r>   -6.9832    1.0000 </r>
       <r>   -6.5576    1.0000 </r>
       <r>   -6.2511    1.0000 </r>
       <r>   -4.0338    1.0000 </r>
       <r>   -3.7324    1.0000 </r>
       <r>   -3.5353    1.0000 </r>
       <r>   -2.9501    1.0000 </r>
       <r>   -2.6002    1.0000 </r>
       <r>   -2.3117    1.0000 </r>
       <r>   -1.6820    1.0000 </r>
       <r>   -1.2415    1.0000 </r>
       <r>   -0.0318    1.0000 </r>
       <r>    1.0242    1.0000 </r>
       <r>    1.1304    1.0000 </r>
       <r>    1.7982    1.0000 </r>
       <r>    1.9722    1.0000 </r>
       <r>    2.2518    1.0000 </r>
       <r>    2.9159    1.0000 </r>
       <r>    3.7486    1.0000 </r>
       <r>    3.8720    1.0000 </r>
       <r>    4.4042    1.0000 </r>
       <r>   10.3204    0.0000 </r>
       <r>   10.9564    0.0000 </r>
       <r>   11.1087    0.0000 </r>
       <r>   11.8015    0.0000 </r>
       <r>   12.6311    0.0000 </r>
       <r>   13.0398    0.0000 </r>
       <r>   13.4722    0.0000 </r>
       <r>   13.9536    0.0000 </r>
       <r>   14.2834    0.0000 </r>
       <r>   14.6720    0.0000 </r>
       <r>   15.1629    0.0000 </r>
       <r>   15.5405    0.0000 </r>
       <r>   15.7821    0.0000 </r>
       <r>   16.2016    0.0000 </r>
       <r>   16.5296    0.0000 </r>
       <r>   16.9722    0.0000 </r>
       <r>   17.2429    0.0000 </r>
       <r>   17.4100    0.0000 </r>
       <r>   18.1567    0.0000 </r>
       <r>   18.4702    0.0000 </r>
       <r>   19.0277    0.0000 </r>
       <r>   19.4086    0.0000 </r>
       <r>   20.0606    0.0000 </r>
       <r>   20.2720    0.0000 </r>
      </set>
      <set comment="kpoint 8">
       <r>  -14.1457    1.0000 </r>
       <r>  -13.7706    1.0000 </r>
       <r>  -10.9327    1.0000 </r>
       <r>   -7.0360    1.0000 </r>
       <r>   -6.6895    1.0000 </r>
       <r>   -6.2205    1.0000 </r>
       <r>   -4.3077    1.0000 </r>
       <r>   -3.8446    1.0000 </r>
       <r>   -3.1231    1.0000 </r>
       <r>   -2.8144    1.0000 </r>
       <r>   -2.1498    1.0000 </r>
       <r>   -1.8486    1.0000 </r>
       <r>   -1.5668    1.0000 </r>
       <r>   -1.4035    1.0000 </r>
       <r>   -0.0384    1.0000 </r>
       <r>    0.7122    1.0000 </r>
       <r>    0.8475    1.0000 </r>
       <r>    1.8441    1.0000 </r>
       <r>    2.1424    1.0000 </r>
       <r>    2.4357    1.0000 </r>
       <r>    3.0801    1.0000 </r>
       <r>    3.3091    1.0000 </r>
       <r>    3.8665    1.0000 </r>
       <r>    4.4300    1.0000 </r>
       <r>    9.7352    0.0000 </r>
       <r>   10.1657    0.0000 </r>
       <r>   10.4413    0.0000 </r>
       <r>   11.5611    0.0000 </r>
       <r>   12.7443    0.0000 </r>
       <r>   13.1999    0.0000 </r>
       <r>   13.3957    0.0000 </r>
       <r>   13.9346    0.0000 </r>
       <r>   14.4897    0.0000 </r>
       <r>   14.7881    0.0000 </r>
       <r>   14.9660    0.0000 </r>
       <r>   15.7214    0.0000 </r>
       <r>   16.0254    0.0000 </r>
       <r>   16.3300    0.0000 </r>
       <r>   16.7007    0.0000 </r>
       <r>   17.1194    0.0000 </r>
       <r>   17.7300    0.0000 </r>
       <r>   18.1496    0.0000 </r>
       <r>   18.2980    0.0000 </r>
       <r>   18.8570    0.0000 </r>
       <r>   19.2542    0.0000 </r>
       <r>   19.6651    0.0000 </r>
       <r>   20.1667    0.0000 </r>
       <r>   20.2785    0.0000 </r>
      </set>
      <set comment="kpoint 9">
       <r>  -14.1298    1.0000 </r>
       <r>  -13.7781    1.0000 </r>
       <r>  -10.9314    1.0000 </r>
       <r>   -7.0050    1.0000 </r>
       <r>   -6.8074    1.0000 </r>
       <r>   -6.2416    1.0000 </r>
       <r>   -4.2012    1.0000 </r>
       <r>   -4.0131    1.0000 </r>
       <r>   -3.3623    1.0000 </r>
       <r>   -2.6285    1.0000 </r>
       <r>   -2.0147    1.0000 </r>
       <r>   -1.8350    1.0000 </r>
       <r>   -1.4929    1.0000 </r>
       <r>   -1.2499    1.0000 </r>
       <r>   -0.0465    1.0000 </r>
       <r>    0.7432    1.0000 </r>
       <r>    1.2476    1.0000 </r>
       <r>    1.4255    1.0000 </r>
       <r>    2.0830    1.0000 </r>
       <r>    2.5882    1.0000 </r>
       <r>    2.8854    1.0000 </r>
       <r>    3.4508    1.0000 </r>
       <r>    3.7918    1.0000 </r>
       <r>    4.4390    1.0000 </r>
       <r>    9.7801    0.0000 </r>
       <r>    9.7860    0.0000 </r>
       <r>   10.3221    0.0000 </r>
       <r>   11.4822    0.0000 </r>
       <r>   12.9155    0.0000 </r>
       <r>   13.1225    0.0000 </r>
       <r>   13.2212    0.0000 </r>
       <r>   14.0752    0.0000 </r>
       <r>   14.5510    0.0000 </r>
       <r>   14.7612    0.0000 </r>
       <r>   15.0781    0.0000 </r>
       <r>   15.7205    0.0000 </r>
       <r>   15.9231    0.0000 </r>
       <r>   16.2180    0.0000 </r>
       <r>   16.9659    0.0000 </r>
       <r>   17.2426    0.0000 </r>
       <r>   17.7586    0.0000 </r>
       <r>   18.2398    0.0000 </r>
       <r>   18.3912    0.0000 </r>
       <r>   18.8099    0.0000 </r>
       <r>   19.0367    0.0000 </r>
       <r>   19.2744    0.0000 </r>
       <r>   19.8937    0.0000 </r>
       <r>   20.1215    0.0000 </r>
      </set>
      <set comment="kpoint 10">
       <r>  -14.2941    1.0000 </r>
       <r>  -13.6499    1.0000 </r>
       <r>  -10.7611    1.0000 </r>
       <r>   -6.9292    1.0000 </r>
       <r>   -6.8407    1.0000 </r>
       <r>   -6.3010    1.0000 </r>
       <r>   -4.1308    1.0000 </r>
       <r>   -3.8303    1.0000 </r>
       <r>   -3.6865    1.0000 </r>
       <r>   -2.8821    1.0000 </r>
       <r>   -2.6098    1.0000 </r>
       <r>   -1.8289    1.0000 </r>
       <r>   -1.3914    1.0000 </r>
       <r>   -1.1269    1.0000 </r>
       <r>    0.3553    1.0000 </r>
       <r>    0.9011    1.0000 </r>
       <r>    1.1059    1.0000 </r>
       <r>    1.4557    1.0000 </r>
       <r>    2.1461    1.0000 </r>
       <r>    2.5792    1.0000 </r>
       <r>    2.9690    1.0000 </r>
       <r>    3.2128    1.0000 </r>
       <r>    3.8683    1.0000 </r>
       <r>    4.4030    1.0000 </r>
       <r>   10.1920    0.0000 </r>
       <r>   10.4079    0.0000 </r>
       <r>   10.7974    0.0000 </r>
       <r>   11.5422    0.0000 </r>
       <r>   12.9301    0.0000 </r>
       <r>   13.0074    0.0000 </r>
       <r>   13.0420    0.0000 </r>
       <r>   14.2257    0.0000 </r>
       <r>   14.5322    0.0000 </r>
       <r>   14.6195    0.0000 </r>
       <r>   15.1303    0.0000 </r>
       <r>   15.5229    0.0000 </r>
       <r>   15.8956    0.0000 </r>
       <r>   16.1586    0.0000 </r>
       <r>   16.7584    0.0000 </r>
       <r>   16.8941    0.0000 </r>
       <r>   17.0766    0.0000 </r>
       <r>   17.7970    0.0000 </r>
       <r>   18.4529    0.0000 </r>
       <r>   18.7167    0.0000 </r>
       <r>   18.8992    0.0000 </r>
       <r>   19.3477    0.0000 </r>
       <r>   19.5134    0.0000 </r>
       <r>   20.1158    0.0000 </r>
      </set>
      <set comment="kpoint 11">
       <r>  -14.4569    1.0000 </r>
       <r>  -13.5398    1.0000 </r>
       <r>  -10.5285    1.0000 </r>
       <r>   -6.9430    1.0000 </r>
       <r>   -6.6474    1.0000 </r>
       <r>   -6.2232    1.0000 </r>
       <r>   -4.4139    1.0000 </r>
       <r>   -4.1209    1.0000 </r>
       <r>   -3.7345    1.0000 </r>
       <r>   -3.0219    1.0000 </r>
       <r>   -2.4960    1.0000 </r>
       <r>   -1.9700    1.0000 </r>
       <r>   -1.6578    1.0000 </r>
       <r>   -0.9096    1.0000 </r>
       <r>   -0.5692    1.0000 </r>
       <r>    1.1396    1.0000 </r>
       <r>    1.5439    1.0000 </r>
       <r>    1.8378    1.0000 </r>
       <r>    2.0338    1.0000 </r>
       <r>    2.5119    1.0000 </r>
       <r>    3.0643    1.0000 </r>
       <r>    3.5849    1.0000 </r>
       <r>    3.6734    1.0000 </r>
       <r>    4.3881    1.0000 </r>
       <r>   11.0177    0.0000 </r>
       <r>   11.1352    0.0000 </r>
       <r>   11.3937    0.0000 </r>
       <r>   11.8430    0.0000 </r>
       <r>   12.6779    0.0000 </r>
       <r>   12.8854    0.0000 </r>
       <r>   13.2553    0.0000 </r>
       <r>   14.1823    0.0000 </r>
       <r>   14.3860    0.0000 </r>
       <r>   14.5613    0.0000 </r>
       <r>   15.3185    0.0000 </r>
       <r>   15.5085    0.0000 </r>
       <r>   15.8544    0.0000 </r>
       <r>   16.2112    0.0000 </r>
       <r>   16.3652    0.0000 </r>
       <r>   16.5647    0.0000 </r>
       <r>   16.8453    0.0000 </r>
       <r>   17.1871    0.0000 </r>
       <r>   17.6364    0.0000 </r>
       <r>   17.9136    0.0000 </r>
       <r>   18.5950    0.0000 </r>
       <r>   18.8764    0.0000 </r>
       <r>   19.6961    0.0000 </r>
       <r>   20.2931    0.0000 </r>
      </set>
      <set comment="kpoint 12">
       <r>  -14.5546    1.0000 </r>
       <r>  -13.4795    1.0000 </r>
       <r>  -10.3813    1.0000 </r>
       <r>   -6.7983    1.0000 </r>
       <r>   -6.4930    1.0000 </r>
       <r>   -6.0796    1.0000 </r>
       <r>   -4.7674    1.0000 </r>
       <r>   -4.6472    1.0000 </r>
       <r>   -3.4458    1.0000 </r>
       <r>   -2.7786    1.0000 </r>
       <r>   -2.5407    1.0000 </r>
       <r>   -2.1082    1.0000 </r>
       <r>   -1.9567    1.0000 </r>
       <r>   -1.2224    1.0000 </r>
       <r>   -0.8290    1.0000 </r>
       <r>    1.1958    1.0000 </r>
       <r>    1.2806    1.0000 </r>
       <r>    2.2510    1.0000 </r>
       <r>    2.3846    1.0000 </r>
       <r>    2.5461    1.0000 </r>
       <r>    3.1007    1.0000 </r>
       <r>    3.3233    1.0000 </r>
       <r>    4.0799    1.0000 </r>
       <r>    4.4010    1.0000 </r>
       <r>   11.3663    0.0000 </r>
       <r>   11.6867    0.0000 </r>
       <r>   11.7631    0.0000 </r>
       <r>   12.1284    0.0000 </r>
       <r>   12.8425    0.0000 </r>
       <r>   12.9843    0.0000 </r>
       <r>   13.4786    0.0000 </r>
       <r>   14.0418    0.0000 </r>
       <r>   14.3155    0.0000 </r>
       <r>   14.3700    0.0000 </r>
       <r>   15.5164    0.0000 </r>
       <r>   15.7143    0.0000 </r>
       <r>   15.9512    0.0000 </r>
       <r>   16.0012    0.0000 </r>
       <r>   16.4312    0.0000 </r>
       <r>   16.4583    0.0000 </r>
       <r>   16.5842    0.0000 </r>
       <r>   16.9453    0.0000 </r>
       <r>   17.1648    0.0000 </r>
       <r>   17.2247    0.0000 </r>
       <r>   18.2537    0.0000 </r>
       <r>   18.7122    0.0000 </r>
       <r>   19.3579    0.0000 </r>
       <r>   19.5967    0.0000 </r>
      </set>
      <set comment="kpoint 13">
       <r>  -14.1601    1.0000 </r>
       <r>  -13.7544    1.0000 </r>
       <r>  -10.9185    1.0000 </r>
       <r>   -7.1274    1.0000 </r>
       <r>   -6.5586    1.0000 </r>
       <r>   -6.4227    1.0000 </r>
       <r>   -4.2842    1.0000 </r>
       <r>   -3.3852    1.0000 </r>
       <r>   -3.1929    1.0000 </r>
       <r>   -2.6392    1.0000 </r>
       <r>   -2.6180    1.0000 </r>
       <r>   -2.1057    1.0000 </r>
       <r>   -1.4291    1.0000 </r>
       <r>   -0.7991    1.0000 </r>
       <r>   -0.0906    1.0000 </r>
       <r>    0.4241    1.0000 </r>
       <r>    0.4453    1.0000 </r>
       <r>    2.0308    1.0000 </r>
       <r>    2.1263    1.0000 </r>
       <r>    2.6245    1.0000 </r>
       <r>    2.6755    1.0000 </r>
       <r>    3.6203    1.0000 </r>
       <r>    4.0156    1.0000 </r>
       <r>    4.1478    1.0000 </r>
       <r>    9.8002    0.0000 </r>
       <r>   10.5019    0.0000 </r>
       <r>   11.1375    0.0000 </r>
       <r>   11.4246    0.0000 </r>
       <r>   12.2832    0.0000 </r>
       <r>   12.9302    0.0000 </r>
       <r>   13.0223    0.0000 </r>
       <r>   14.0202    0.0000 </r>
       <r>   14.2303    0.0000 </r>
       <r>   14.6426    0.0000 </r>
       <r>   15.3288    0.0000 </r>
       <r>   15.7172    0.0000 </r>
       <r>   16.1974    0.0000 </r>
       <r>   16.5968    0.0000 </r>
       <r>   16.8734    0.0000 </r>
       <r>   17.2888    0.0000 </r>
       <r>   17.4957    0.0000 </r>
       <r>   17.5843    0.0000 </r>
       <r>   18.2518    0.0000 </r>
       <r>   18.5322    0.0000 </r>
       <r>   19.0129    0.0000 </r>
       <r>   19.7271    0.0000 </r>
       <r>   19.9042    0.0000 </r>
       <r>   20.4903    0.0000 </r>
      </set>
      <set comment="kpoint 14">
       <r>  -14.0249    1.0000 </r>
       <r>  -13.8561    1.0000 </r>
       <r>  -10.9685    1.0000 </r>
       <r>   -7.2654    1.0000 </r>
       <r>   -6.7819    1.0000 </r>
       <r>   -6.3288    1.0000 </r>
       <r>   -4.2651    1.0000 </r>
       <r>   -3.9440    1.0000 </r>
       <r>   -2.8963    1.0000 </r>
       <r>   -2.5080    1.0000 </r>
       <r>   -1.8613    1.0000 </r>
       <r>   -1.6128    1.0000 </r>
       <r>   -1.4803    1.0000 </r>
       <r>   -0.7472    1.0000 </r>
       <r>   -0.2703    1.0000 </r>
       <r>    0.1409    1.0000 </r>
       <r>    0.5459    1.0000 </r>
       <r>    1.8728    1.0000 </r>
       <r>    2.0228    1.0000 </r>
       <r>    2.4918    1.0000 </r>
       <r>    2.9195    1.0000 </r>
       <r>    3.6998    1.0000 </r>
       <r>    3.7645    1.0000 </r>
       <r>    4.2258    1.0000 </r>
       <r>    9.6264    0.0000 </r>
       <r>    9.8625    0.0000 </r>
       <r>   10.6814    0.0000 </r>
       <r>   11.6031    0.0000 </r>
       <r>   12.2765    0.0000 </r>
       <r>   12.6434    0.0000 </r>
       <r>   13.0849    0.0000 </r>
       <r>   13.7434    0.0000 </r>
       <r>   14.3190    0.0000 </r>
       <r>   14.7731    0.0000 </r>
       <r>   15.3309    0.0000 </r>
       <r>   16.0389    0.0000 </r>
       <r>   16.0890    0.0000 </r>
       <r>   16.8100    0.0000 </r>
       <r>   17.0702    0.0000 </r>
       <r>   17.3347    0.0000 </r>
       <r>   17.5703    0.0000 </r>
       <r>   17.8576    0.0000 </r>
       <r>   18.1831    0.0000 </r>
       <r>   18.3971    0.0000 </r>
       <r>   19.4654    0.0000 </r>
       <r>   19.6920    0.0000 </r>
       <r>   19.9195    0.0000 </r>
       <r>   20.4440    0.0000 </r>
      </set>
      <set comment="kpoint 15">
       <r>  -14.1170    1.0000 </r>
       <r>  -13.7718    1.0000 </r>
       <r>  -10.8699    1.0000 </r>
       <r>   -7.2994    1.0000 </r>
       <r>   -7.0735    1.0000 </r>
       <r>   -6.1800    1.0000 </r>
       <r>   -4.4055    1.0000 </r>
       <r>   -3.7869    1.0000 </r>
       <r>   -3.0549    1.0000 </r>
       <r>   -2.3928    1.0000 </r>
       <r>   -2.2354    1.0000 </r>
       <r>   -1.6017    1.0000 </r>
       <r>   -1.1307    1.0000 </r>
       <r>   -0.8165    1.0000 </r>
       <r>   -0.0763    1.0000 </r>
       <r>    0.5302    1.0000 </r>
       <r>    0.8452    1.0000 </r>
       <r>    1.3275    1.0000 </r>
       <r>    2.0910    1.0000 </r>
       <r>    2.6146    1.0000 </r>
       <r>    2.7726    1.0000 </r>
       <r>    3.1686    1.0000 </r>
       <r>    4.0448    1.0000 </r>
       <r>    4.4083    1.0000 </r>
       <r>    9.6559    0.0000 </r>
       <r>    9.8158    0.0000 </r>
       <r>   10.6254    0.0000 </r>
       <r>   11.9458    0.0000 </r>
       <r>   12.2315    0.0000 </r>
       <r>   12.5240    0.0000 </r>
       <r>   12.9958    0.0000 </r>
       <r>   13.7681    0.0000 </r>
       <r>   14.4234    0.0000 </r>
       <r>   14.7271    0.0000 </r>
       <r>   15.2059    0.0000 </r>
       <r>   15.5185    0.0000 </r>
       <r>   16.0944    0.0000 </r>
       <r>   16.7795    0.0000 </r>
       <r>   16.8984    0.0000 </r>
       <r>   17.3349    0.0000 </r>
       <r>   17.6324    0.0000 </r>
       <r>   18.0321    0.0000 </r>
       <r>   18.3449    0.0000 </r>
       <r>   18.7145    0.0000 </r>
       <r>   19.0709    0.0000 </r>
       <r>   19.2340    0.0000 </r>
       <r>   19.8475    0.0000 </r>
       <r>   20.3866    0.0000 </r>
      </set>
      <set comment="kpoint 16">
       <r>  -14.2765    1.0000 </r>
       <r>  -13.6527    1.0000 </r>
       <r>  -10.6815    1.0000 </r>
       <r>   -7.2787    1.0000 </r>
       <r>   -7.1743    1.0000 </r>
       <r>   -6.0560    1.0000 </r>
       <r>   -4.4765    1.0000 </r>
       <r>   -3.6394    1.0000 </r>
       <r>   -3.3626    1.0000 </r>
       <r>   -2.9627    1.0000 </r>
       <r>   -1.9401    1.0000 </r>
       <r>   -1.7873    1.0000 </r>
       <r>   -1.3744    1.0000 </r>
       <r>   -0.7430    1.0000 </r>
       <r>    0.0518    1.0000 </r>
       <r>    0.6713    1.0000 </r>
       <r>    1.0610    1.0000 </r>
       <r>    1.4275    1.0000 </r>
       <r>    2.1858    1.0000 </r>
       <r>    2.5673    1.0000 </r>
       <r>    2.7840    1.0000 </r>
       <r>    3.1115    1.0000 </r>
       <r>    4.1261    1.0000 </r>
       <r>    4.3022    1.0000 </r>
       <r>   10.1150    0.0000 </r>
       <r>   10.2560    0.0000 </r>
       <r>   10.7962    0.0000 </r>
       <r>   11.8667    0.0000 </r>
       <r>   12.4163    0.0000 </r>
       <r>   12.8336    0.0000 </r>
       <r>   12.9422    0.0000 </r>
       <r>   13.8754    0.0000 </r>
       <r>   14.3752    0.0000 </r>
       <r>   14.7286    0.0000 </r>
       <r>   14.9048    0.0000 </r>
       <r>   15.4854    0.0000 </r>
       <r>   16.0340    0.0000 </r>
       <r>   16.4998    0.0000 </r>
       <r>   16.6560    0.0000 </r>
       <r>   17.0174    0.0000 </r>
       <r>   17.2688    0.0000 </r>
       <r>   17.5013    0.0000 </r>
       <r>   18.5189    0.0000 </r>
       <r>   18.6388    0.0000 </r>
       <r>   18.7777    0.0000 </r>
       <r>   19.4131    0.0000 </r>
       <r>   19.5045    0.0000 </r>
       <r>   20.0892    0.0000 </r>
      </set>
      <set comment="kpoint 17">
       <r>  -14.4016    1.0000 </r>
       <r>  -13.5706    1.0000 </r>
       <r>  -10.5410    1.0000 </r>
       <r>   -7.2293    1.0000 </r>
       <r>   -6.9119    1.0000 </r>
       <r>   -6.0583    1.0000 </r>
       <r>   -4.2862    1.0000 </r>
       <r>   -4.0232    1.0000 </r>
       <r>   -4.0032    1.0000 </r>
       <r>   -2.4402    1.0000 </r>
       <r>   -2.1792    1.0000 </r>
       <r>   -1.9405    1.0000 </r>
       <r>   -1.6525    1.0000 </r>
       <r>   -0.9685    1.0000 </r>
       <r>   -0.3455    1.0000 </r>
       <r>    1.1881    1.0000 </r>
       <r>    1.2327    1.0000 </r>
       <r>    1.6706    1.0000 </r>
       <r>    1.9655    1.0000 </r>
       <r>    2.6582    1.0000 </r>
       <r>    3.0730    1.0000 </r>
       <r>    3.3634    1.0000 </r>
       <r>    3.8472    1.0000 </r>
       <r>    4.2533    1.0000 </r>
       <r>   10.6284    0.0000 </r>
       <r>   10.9761    0.0000 </r>
       <r>   10.9911    0.0000 </r>
       <r>   11.8877    0.0000 </r>
       <r>   12.4334    0.0000 </r>
       <r>   12.8180    0.0000 </r>
       <r>   13.3952    0.0000 </r>
       <r>   13.9186    0.0000 </r>
       <r>   14.2823    0.0000 </r>
       <r>   14.6881    0.0000 </r>
       <r>   15.0098    0.0000 </r>
       <r>   15.6197    0.0000 </r>
       <r>   16.1481    0.0000 </r>
       <r>   16.2526    0.0000 </r>
       <r>   16.2756    0.0000 </r>
       <r>   16.8383    0.0000 </r>
       <r>   17.0573    0.0000 </r>
       <r>   17.1472    0.0000 </r>
       <r>   17.6681    0.0000 </r>
       <r>   18.1812    0.0000 </r>
       <r>   18.6634    0.0000 </r>
       <r>   18.8338    0.0000 </r>
       <r>   19.8369    0.0000 </r>
       <r>   20.3926    0.0000 </r>
      </set>
      <set comment="kpoint 18">
       <r>  -13.9726    1.0000 </r>
       <r>  -13.8918    1.0000 </r>
       <r>  -10.9062    1.0000 </r>
       <r>   -7.5026    1.0000 </r>
       <r>   -7.1332    1.0000 </r>
       <r>   -6.0946    1.0000 </r>
       <r>   -4.5473    1.0000 </r>
       <r>   -3.9007    1.0000 </r>
       <r>   -2.2719    1.0000 </r>
       <r>   -2.0874    1.0000 </r>
       <r>   -2.0355    1.0000 </r>
       <r>   -1.7233    1.0000 </r>
       <r>   -1.2233    1.0000 </r>
       <r>   -0.7019    1.0000 </r>
       <r>   -0.0672    1.0000 </r>
       <r>    0.2402    1.0000 </r>
       <r>    0.3012    1.0000 </r>
       <r>    1.7931    1.0000 </r>
       <r>    1.9253    1.0000 </r>
       <r>    2.4382    1.0000 </r>
       <r>    2.5582    1.0000 </r>
       <r>    3.2839    1.0000 </r>
       <r>    4.1520    1.0000 </r>
       <r>    4.4449    1.0000 </r>
       <r>    9.3819    0.0000 </r>
       <r>    9.5436    0.0000 </r>
       <r>   11.2760    0.0000 </r>
       <r>   11.3502    0.0000 </r>
       <r>   12.4493    0.0000 </r>
       <r>   12.6466    0.0000 </r>
       <r>   12.9955    0.0000 </r>
       <r>   13.4029    0.0000 </r>
       <r>   13.5071    0.0000 </r>
       <r>   14.8809    0.0000 </r>
       <r>   15.6446    0.0000 </r>
       <r>   15.7877    0.0000 </r>
       <r>   15.8684    0.0000 </r>
       <r>   16.5192    0.0000 </r>
       <r>   16.7956    0.0000 </r>
       <r>   17.4881    0.0000 </r>
       <r>   17.6071    0.0000 </r>
       <r>   18.4759    0.0000 </r>
       <r>   18.6475    0.0000 </r>
       <r>   18.8729    0.0000 </r>
       <r>   19.3594    0.0000 </r>
       <r>   19.9117    0.0000 </r>
       <r>   20.0214    0.0000 </r>
       <r>   20.0797    0.0000 </r>
      </set>
      <set comment="kpoint 19">
       <r>  -14.0844    1.0000 </r>
       <r>  -13.7931    1.0000 </r>
       <r>  -10.7674    1.0000 </r>
       <r>   -7.5793    1.0000 </r>
       <r>   -7.4659    1.0000 </r>
       <r>   -5.8395    1.0000 </r>
       <r>   -4.8227    1.0000 </r>
       <r>   -3.3752    1.0000 </r>
       <r>   -2.8300    1.0000 </r>
       <r>   -2.3618    1.0000 </r>
       <r>   -1.8256    1.0000 </r>
       <r>   -1.5733    1.0000 </r>
       <r>   -0.9210    1.0000 </r>
       <r>   -0.6770    1.0000 </r>
       <r>   -0.2416    1.0000 </r>
       <r>    0.4746    1.0000 </r>
       <r>    0.7875    1.0000 </r>
       <r>    1.3234    1.0000 </r>
       <r>    1.8236    1.0000 </r>
       <r>    2.5027    1.0000 </r>
       <r>    2.6748    1.0000 </r>
       <r>    2.8764    1.0000 </r>
       <r>    4.0980    1.0000 </r>
       <r>    4.8109    1.0000 </r>
       <r>    9.3022    0.0000 </r>
       <r>    9.5355    0.0000 </r>
       <r>   11.2211    0.0000 </r>
       <r>   12.0743    0.0000 </r>
       <r>   12.3951    0.0000 </r>
       <r>   12.5123    0.0000 </r>
       <r>   12.8261    0.0000 </r>
       <r>   13.2159    0.0000 </r>
       <r>   13.7878    0.0000 </r>
       <r>   14.6965    0.0000 </r>
       <r>   15.1396    0.0000 </r>
       <r>   15.2741    0.0000 </r>
       <r>   15.6845    0.0000 </r>
       <r>   16.4299    0.0000 </r>
       <r>   17.1242    0.0000 </r>
       <r>   17.3439    0.0000 </r>
       <r>   18.0688    0.0000 </r>
       <r>   18.5354    0.0000 </r>
       <r>   18.6108    0.0000 </r>
       <r>   19.0940    0.0000 </r>
       <r>   19.2896    0.0000 </r>
       <r>   19.4958    0.0000 </r>
       <r>   20.1525    0.0000 </r>
       <r>   20.4214    0.0000 </r>
      </set>
      <set comment="kpoint 20">
       <r>  -14.1985    1.0000 </r>
       <r>  -13.7062    1.0000 </r>
       <r>  -10.6669    1.0000 </r>
       <r>   -7.5352    1.0000 </r>
       <r>   -7.4606    1.0000 </r>
       <r>   -5.8072    1.0000 </r>
       <r>   -4.7774    1.0000 </r>
       <r>   -3.3660    1.0000 </r>
       <r>   -3.0705    1.0000 </r>
       <r>   -2.6920    1.0000 </r>
       <r>   -2.0762    1.0000 </r>
       <r>   -1.1708    1.0000 </r>
       <r>   -1.0697    1.0000 </r>
       <r>   -0.9911    1.0000 </r>
       <r>    0.1128    1.0000 </r>
       <r>    0.4055    1.0000 </r>
       <r>    0.9301    1.0000 </r>
       <r>    1.4990    1.0000 </r>
       <r>    1.7322    1.0000 </r>
       <r>    2.4696    1.0000 </r>
       <r>    2.7624    1.0000 </r>
       <r>    3.0518    1.0000 </r>
       <r>    4.0734    1.0000 </r>
       <r>    4.6665    1.0000 </r>
       <r>    9.7029    0.0000 </r>
       <r>    9.8051    0.0000 </r>
       <r>   10.8649    0.0000 </r>
       <r>   12.0944    0.0000 </r>
       <r>   12.3667    0.0000 </r>
       <r>   12.7580    0.0000 </r>
       <r>   13.0718    0.0000 </r>
       <r>   13.5461    0.0000 </r>
       <r>   14.0129    0.0000 </r>
       <r>   14.5697    0.0000 </r>
       <r>   14.8688    0.0000 </r>
       <r>   15.0362    0.0000 </r>
       <r>   15.8187    0.0000 </r>
       <r>   16.4640    0.0000 </r>
       <r>   17.0776    0.0000 </r>
       <r>   17.3014    0.0000 </r>
       <r>   17.4736    0.0000 </r>
       <r>   18.0857    0.0000 </r>
       <r>   18.5635    0.0000 </r>
       <r>   18.8236    0.0000 </r>
       <r>   19.1867    0.0000 </r>
       <r>   19.3710    0.0000 </r>
       <r>   19.7725    0.0000 </r>
       <r>   20.6982    0.0000 </r>
      </set>
      <set comment="kpoint 21">
       <r>  -14.0619    1.0000 </r>
       <r>  -13.8130    1.0000 </r>
       <r>  -10.7101    1.0000 </r>
       <r>   -7.6818    1.0000 </r>
       <r>   -7.6425    1.0000 </r>
       <r>   -5.6579    1.0000 </r>
       <r>   -4.9794    1.0000 </r>
       <r>   -3.0346    1.0000 </r>
       <r>   -2.9994    1.0000 </r>
       <r>   -2.2084    1.0000 </r>
       <r>   -2.0038    1.0000 </r>
       <r>   -1.0994    1.0000 </r>
       <r>   -1.0111    1.0000 </r>
       <r>   -0.6959    1.0000 </r>
       <r>   -0.4313    1.0000 </r>
       <r>    0.8220    1.0000 </r>
       <r>    0.9088    1.0000 </r>
       <r>    1.2173    1.0000 </r>
       <r>    1.3562    1.0000 </r>
       <r>    2.3557    1.0000 </r>
       <r>    2.6682    1.0000 </r>
       <r>    2.9639    1.0000 </r>
       <r>    4.0420    1.0000 </r>
       <r>    5.0418    1.0000 </r>
       <r>    9.1622    0.0000 </r>
       <r>    9.3490    0.0000 </r>
       <r>   11.7955    0.0000 </r>
       <r>   12.1422    0.0000 </r>
       <r>   12.3628    0.0000 </r>
       <r>   12.4759    0.0000 </r>
       <r>   12.5059    0.0000 </r>
       <r>   12.8852    0.0000 </r>
       <r>   14.2422    0.0000 </r>
       <r>   14.5546    0.0000 </r>
       <r>   14.8113    0.0000 </r>
       <r>   14.8727    0.0000 </r>
       <r>   15.5433    0.0000 </r>
       <r>   16.2055    0.0000 </r>
       <r>   17.2306    0.0000 </r>
       <r>   17.7317    0.0000 </r>
       <r>   18.0401    0.0000 </r>
       <r>   18.9116    0.0000 </r>
       <r>   18.9780    0.0000 </r>
       <r>   19.0575    0.0000 </r>
       <r>   19.6285    0.0000 </r>
       <r>   19.8835    0.0000 </r>
       <r>   19.9696    0.0000 </r>
       <r>   20.3269    0.0000 </r>
      </set>
      <set comment="kpoint 22">
       <r>  -14.4335    1.0000 </r>
       <r>  -13.5650    1.0000 </r>
       <r>  -10.6002    1.0000 </r>
       <r>   -7.0227    1.0000 </r>
       <r>   -6.4759    1.0000 </r>
       <r>   -6.1794    1.0000 </r>
       <r>   -4.0739    1.0000 </r>
       <r>   -4.0227    1.0000 </r>
       <r>   -3.6073    1.0000 </r>
       <r>   -2.8528    1.0000 </r>
       <r>   -2.8038    1.0000 </r>
       <r>   -2.4028    1.0000 </r>
       <r>   -1.6612    1.0000 </r>
       <r>   -1.2179    1.0000 </r>
       <r>   -0.4646    1.0000 </r>
       <r>    1.3043    1.0000 </r>
       <r>    1.4703    1.0000 </r>
       <r>    1.6857    1.0000 </r>
       <r>    1.7806    1.0000 </r>
       <r>    2.3527    1.0000 </r>
       <r>    3.2389    1.0000 </r>
       <r>    3.4337    1.0000 </r>
       <r>    4.1586    1.0000 </r>
       <r>    4.3532    1.0000 </r>
       <r>   10.9440    0.0000 </r>
       <r>   11.0899    0.0000 </r>
       <r>   11.9011    0.0000 </r>
       <r>   12.1199    0.0000 </r>
       <r>   12.3066    0.0000 </r>
       <r>   12.6865    0.0000 </r>
       <r>   13.8467    0.0000 </r>
       <r>   14.0095    0.0000 </r>
       <r>   14.3145    0.0000 </r>
       <r>   14.4988    0.0000 </r>
       <r>   15.3015    0.0000 </r>
       <r>   15.5012    0.0000 </r>
       <r>   15.9707    0.0000 </r>
       <r>   16.0600    0.0000 </r>
       <r>   16.3982    0.0000 </r>
       <r>   16.4941    0.0000 </r>
       <r>   16.9699    0.0000 </r>
       <r>   17.2376    0.0000 </r>
       <r>   17.3749    0.0000 </r>
       <r>   17.6709    0.0000 </r>
       <r>   18.8999    0.0000 </r>
       <r>   19.8136    0.0000 </r>
       <r>   19.9847    0.0000 </r>
       <r>   20.0926    0.0000 </r>
      </set>
      <set comment="kpoint 23">
       <r>  -14.2560    1.0000 </r>
       <r>  -13.6912    1.0000 </r>
       <r>  -10.8183    1.0000 </r>
       <r>   -7.1379    1.0000 </r>
       <r>   -6.4888    1.0000 </r>
       <r>   -6.3425    1.0000 </r>
       <r>   -4.0760    1.0000 </r>
       <r>   -3.7815    1.0000 </r>
       <r>   -2.8781    1.0000 </r>
       <r>   -2.7825    1.0000 </r>
       <r>   -2.5053    1.0000 </r>
       <r>   -2.3805    1.0000 </r>
       <r>   -1.7271    1.0000 </r>
       <r>   -1.7008    1.0000 </r>
       <r>    0.3500    1.0000 </r>
       <r>    0.6282    1.0000 </r>
       <r>    1.0369    1.0000 </r>
       <r>    1.8197    1.0000 </r>
       <r>    2.1155    1.0000 </r>
       <r>    2.2000    1.0000 </r>
       <r>    3.2424    1.0000 </r>
       <r>    3.6945    1.0000 </r>
       <r>    3.8683    1.0000 </r>
       <r>    4.2071    1.0000 </r>
       <r>   10.1139    0.0000 </r>
       <r>   10.5459    0.0000 </r>
       <r>   10.9557    0.0000 </r>
       <r>   11.9677    0.0000 </r>
       <r>   12.1951    0.0000 </r>
       <r>   12.5938    0.0000 </r>
       <r>   13.8917    0.0000 </r>
       <r>   14.1687    0.0000 </r>
       <r>   14.4900    0.0000 </r>
       <r>   14.6789    0.0000 </r>
       <r>   15.2407    0.0000 </r>
       <r>   15.5408    0.0000 </r>
       <r>   15.8641    0.0000 </r>
       <r>   16.3548    0.0000 </r>
       <r>   16.4313    0.0000 </r>
       <r>   16.6298    0.0000 </r>
       <r>   17.3386    0.0000 </r>
       <r>   17.9740    0.0000 </r>
       <r>   18.3336    0.0000 </r>
       <r>   18.4297    0.0000 </r>
       <r>   19.2083    0.0000 </r>
       <r>   19.7212    0.0000 </r>
       <r>   20.1032    0.0000 </r>
       <r>   20.4803    0.0000 </r>
      </set>
      <set comment="kpoint 24">
       <r>  -14.1219    1.0000 </r>
       <r>  -13.7899    1.0000 </r>
       <r>  -10.9140    1.0000 </r>
       <r>   -7.1235    1.0000 </r>
       <r>   -6.7513    1.0000 </r>
       <r>   -6.2820    1.0000 </r>
       <r>   -4.1558    1.0000 </r>
       <r>   -3.9481    1.0000 </r>
       <r>   -2.9220    1.0000 </r>
       <r>   -2.3792    1.0000 </r>
       <r>   -2.2038    1.0000 </r>
       <r>   -2.0551    1.0000 </r>
       <r>   -1.7033    1.0000 </r>
       <r>   -1.5916    1.0000 </r>
       <r>   -0.2724    1.0000 </r>
       <r>    0.9381    1.0000 </r>
       <r>    1.0208    1.0000 </r>
       <r>    2.0136    1.0000 </r>
       <r>    2.3442    1.0000 </r>
       <r>    2.4476    1.0000 </r>
       <r>    2.8696    1.0000 </r>
       <r>    3.5083    1.0000 </r>
       <r>    3.8332    1.0000 </r>
       <r>    4.2021    1.0000 </r>
       <r>    9.7542    0.0000 </r>
       <r>   10.0018    0.0000 </r>
       <r>   10.1271    0.0000 </r>
       <r>   11.6186    0.0000 </r>
       <r>   12.2571    0.0000 </r>
       <r>   12.6731    0.0000 </r>
       <r>   13.5542    0.0000 </r>
       <r>   14.5556    0.0000 </r>
       <r>   14.8270    0.0000 </r>
       <r>   14.8296    0.0000 </r>
       <r>   15.0157    0.0000 </r>
       <r>   15.5955    0.0000 </r>
       <r>   16.1190    0.0000 </r>
       <r>   16.4370    0.0000 </r>
       <r>   16.4539    0.0000 </r>
       <r>   17.1538    0.0000 </r>
       <r>   17.6309    0.0000 </r>
       <r>   18.1255    0.0000 </r>
       <r>   18.8266    0.0000 </r>
       <r>   18.8309    0.0000 </r>
       <r>   19.3285    0.0000 </r>
       <r>   19.5305    0.0000 </r>
       <r>   19.8382    0.0000 </r>
       <r>   20.0856    0.0000 </r>
      </set>
      <set comment="kpoint 25">
       <r>  -14.2120    1.0000 </r>
       <r>  -13.7066    1.0000 </r>
       <r>  -10.8231    1.0000 </r>
       <r>   -6.9881    1.0000 </r>
       <r>   -6.8629    1.0000 </r>
       <r>   -6.4557    1.0000 </r>
       <r>   -4.1866    1.0000 </r>
       <r>   -3.8461    1.0000 </r>
       <r>   -3.2327    1.0000 </r>
       <r>   -2.9902    1.0000 </r>
       <r>   -2.4033    1.0000 </r>
       <r>   -1.6965    1.0000 </r>
       <r>   -1.5182    1.0000 </r>
       <r>   -1.2365    1.0000 </r>
       <r>    0.3907    1.0000 </r>
       <r>    1.1111    1.0000 </r>
       <r>    1.1674    1.0000 </r>
       <r>    1.4504    1.0000 </r>
       <r>    2.1686    1.0000 </r>
       <r>    2.5415    1.0000 </r>
       <r>    3.0652    1.0000 </r>
       <r>    3.5137    1.0000 </r>
       <r>    3.6985    1.0000 </r>
       <r>    4.1415    1.0000 </r>
       <r>    9.7601    0.0000 </r>
       <r>    9.9985    0.0000 </r>
       <r>   10.2916    0.0000 </r>
       <r>   11.3936    0.0000 </r>
       <r>   12.4084    0.0000 </r>
       <r>   12.7594    0.0000 </r>
       <r>   13.2867    0.0000 </r>
       <r>   14.3680    0.0000 </r>
       <r>   14.9552    0.0000 </r>
       <r>   14.9701    0.0000 </r>
       <r>   15.0477    0.0000 </r>
       <r>   15.7215    0.0000 </r>
       <r>   15.8793    0.0000 </r>
       <r>   16.2337    0.0000 </r>
       <r>   16.5026    0.0000 </r>
       <r>   17.2999    0.0000 </r>
       <r>   17.4583    0.0000 </r>
       <r>   18.1827    0.0000 </r>
       <r>   18.2757    0.0000 </r>
       <r>   18.6154    0.0000 </r>
       <r>   18.7784    0.0000 </r>
       <r>   19.4492    0.0000 </r>
       <r>   20.0918    0.0000 </r>
       <r>   20.2739    0.0000 </r>
      </set>
      <set comment="kpoint 26">
       <r>  -14.3875    1.0000 </r>
       <r>  -13.5743    1.0000 </r>
       <r>  -10.5893    1.0000 </r>
       <r>   -6.8354    1.0000 </r>
       <r>   -6.7655    1.0000 </r>
       <r>   -6.6416    1.0000 </r>
       <r>   -4.5770    1.0000 </r>
       <r>   -3.7560    1.0000 </r>
       <r>   -3.3013    1.0000 </r>
       <r>   -3.2787    1.0000 </r>
       <r>   -2.9828    1.0000 </r>
       <r>   -1.4513    1.0000 </r>
       <r>   -1.3158    1.0000 </r>
       <r>   -0.9818    1.0000 </r>
       <r>    0.1532    1.0000 </r>
       <r>    1.0778    1.0000 </r>
       <r>    1.5200    1.0000 </r>
       <r>    1.5615    1.0000 </r>
       <r>    2.2496    1.0000 </r>
       <r>    2.5574    1.0000 </r>
       <r>    3.0065    1.0000 </r>
       <r>    3.5551    1.0000 </r>
       <r>    3.6066    1.0000 </r>
       <r>    4.0922    1.0000 </r>
       <r>   10.3889    0.0000 </r>
       <r>   10.5481    0.0000 </r>
       <r>   10.9570    0.0000 </r>
       <r>   11.3689    0.0000 </r>
       <r>   12.5636    0.0000 </r>
       <r>   12.8098    0.0000 </r>
       <r>   13.0278    0.0000 </r>
       <r>   14.3346    0.0000 </r>
       <r>   14.7643    0.0000 </r>
       <r>   14.8662    0.0000 </r>
       <r>   15.3794    0.0000 </r>
       <r>   15.4330    0.0000 </r>
       <r>   15.5627    0.0000 </r>
       <r>   16.2632    0.0000 </r>
       <r>   16.3529    0.0000 </r>
       <r>   16.5341    0.0000 </r>
       <r>   16.9169    0.0000 </r>
[...]
       <r>   -1.3932    1.0000 </r>
       <r>   -1.0991    1.0000 </r>
       <r>   -0.1841    1.0000 </r>
       <r>    0.3891    1.0000 </r>
       <r>    1.4681    1.0000 </r>
       <r>    1.4748    1.0000 </r>
       <r>    1.6926    1.0000 </r>
       <r>    1.8429    1.0000 </r>
       <r>    1.8478    1.0000 </r>
       <r>    3.5429    1.0000 </r>
       <r>    3.6637    1.0000 </r>
       <r>    3.9484    1.0000 </r>
       <r>    4.8303    1.0000 </r>
       <r>    9.1769    0.0000 </r>
       <r>    9.4399    0.0000 </r>
       <r>    9.5823    0.0000 </r>
       <r>   10.8557    0.0000 </r>
       <r>   11.7657    0.0000 </r>
       <r>   12.4597    0.0000 </r>
       <r>   12.4809    0.0000 </r>
       <r>   12.6197    0.0000 </r>
       <r>   14.2684    0.0000 </r>
       <r>   14.8405    0.0000 </r>
       <r>   14.8697    0.0000 </r>
       <r>   15.2097    0.0000 </r>
       <r>   15.4329    0.0000 </r>
       <r>   16.2521    0.0000 </r>
       <r>   16.7580    0.0000 </r>
       <r>   17.3319    0.0000 </r>
       <r>   17.7557    0.0000 </r>
       <r>   18.2533    0.0000 </r>
       <r>   18.6351    0.0000 </r>
       <r>   19.2915    0.0000 </r>
       <r>   19.4790    0.0000 </r>
       <r>   19.8378    0.0000 </r>
       <r>   20.4089    0.0000 </r>
       <r>   20.5352    0.0000 </r>
      </set>
      <set comment="kpoint 65">
       <r>  -14.4421    1.0000 </r>
       <r>  -13.4768    1.0000 </r>
       <r>  -10.0261    1.0000 </r>
       <r>   -7.9455    1.0000 </r>
       <r>   -6.6651    1.0000 </r>
       <r>   -6.6650    1.0000 </r>
       <r>   -5.5853    1.0000 </r>
       <r>   -5.5852    1.0000 </r>
       <r>   -2.6106    1.0000 </r>
       <r>   -1.5949    1.0000 </r>
       <r>   -1.5948    1.0000 </r>
       <r>   -1.2421    1.0000 </r>
       <r>   -1.2421    1.0000 </r>
       <r>   -0.7802    1.0000 </r>
       <r>    0.5757    1.0000 </r>
       <r>    1.4698    1.0000 </r>
       <r>    1.4698    1.0000 </r>
       <r>    1.5133    1.0000 </r>
       <r>    2.0373    1.0000 </r>
       <r>    2.0374    1.0000 </r>
       <r>    3.6774    1.0000 </r>
       <r>    3.8861    1.0000 </r>
       <r>    3.8861    1.0000 </r>
       <r>    5.0209    1.0000 </r>
       <r>    8.8739    0.0000 </r>
       <r>    9.3684    0.0000 </r>
       <r>    9.3685    0.0000 </r>
       <r>   11.0184    0.0000 </r>
       <r>   11.7403    0.0000 </r>
       <r>   12.3788    0.0000 </r>
       <r>   12.4496    0.0000 </r>
       <r>   12.4497    0.0000 </r>
       <r>   14.4984    0.0000 </r>
       <r>   14.4985    0.0000 </r>
       <r>   14.9719    0.0000 </r>
       <r>   15.1719    0.0000 </r>
       <r>   15.1720    0.0000 </r>
       <r>   16.2730    0.0000 </r>
       <r>   16.2730    0.0000 </r>
       <r>   17.7770    0.0000 </r>
       <r>   18.5495    0.0000 </r>
       <r>   18.5530    0.0000 </r>
       <r>   18.6267    0.0000 </r>
       <r>   18.6270    0.0000 </r>
       <r>   19.1617    0.0000 </r>
       <r>   19.1621    0.0000 </r>
       <r>   20.8228    0.0000 </r>
       <r>   20.8946    0.0000 </r>
      </set>
     </set>
    </set>
   </array>
  </eigenvalues>
  <separator name="orbital magnetization" >
   <v name="MAGDIPOLOUT">      0.00000000      0.00000000      0.00000000</v>
  </separator>
  <dos>
   <i name="efermi">      5.12725874 </i>
   <total>
    <array>
     <dimension dim="1">gridpoints</dimension>
     <dimension dim="2">spin</dimension>
     <field>energy</field>
     <field>total</field>
     <field>integrated</field>
     <set>
      <set comment="spin 1">
       <r>   -16.3860     0.0000     0.0000 </r>
       <r>   -16.2558     0.0000     0.0000 </r>
       <r>   -16.1256     0.0000     0.0000 </r>
       <r>   -15.9954     0.0000     0.0000 </r>
       <r>   -15.8652     0.0000     0.0000 </r>
       <r>   -15.7350     0.0000     0.0000 </r>
       <r>   -15.6049     0.0000     0.0000 </r>
       <r>   -15.4747     0.0000     0.0000 </r>
       <r>   -15.3445     0.0000     0.0000 </r>
       <r>   -15.2143     0.0000     0.0000 </r>
       <r>   -15.0841     0.0000     0.0000 </r>
       <r>   -14.9539     0.0000     0.0000 </r>
       <r>   -14.8237     0.0000     0.0000 </r>
       <r>   -14.6936     0.0000     0.0000 </r>
       <r>   -14.5634     0.1877     0.0244 </r>
       <r>   -14.4332     1.2939     0.2583 </r>
       <r>   -14.3030     1.7925     0.6630 </r>
       <r>   -14.1728     2.2727     1.1006 </r>
       <r>   -14.0426     3.3409     1.8138 </r>
       <r>   -13.9124     0.5404     2.0000 </r>
       <r>   -13.7823     3.2590     2.5415 </r>
       <r>   -13.6521     3.2497     3.2668 </r>
       <r>   -13.5219     2.8781     3.7809 </r>
       <r>   -13.3917     0.2100     4.0000 </r>
       <r>   -13.2615     0.0000     4.0000 </r>
       <r>   -13.1313     0.0000     4.0000 </r>
       <r>   -13.0011     0.0000     4.0000 </r>
       <r>   -12.8710     0.0000     4.0000 </r>
       <r>   -12.7408     0.0000     4.0000 </r>
       <r>   -12.6106     0.0000     4.0000 </r>
       <r>   -12.4804     0.0000     4.0000 </r>
       <r>   -12.3502     0.0000     4.0000 </r>
       <r>   -12.2200     0.0000     4.0000 </r>
       <r>   -12.0898     0.0000     4.0000 </r>
       <r>   -11.9597     0.0000     4.0000 </r>
       <r>   -11.8295     0.0000     4.0000 </r>
       <r>   -11.6993     0.0000     4.0000 </r>
       <r>   -11.5691     0.0000     4.0000 </r>
       <r>   -11.4389     0.0000     4.0000 </r>
       <r>   -11.3087     0.0000     4.0000 </r>
       <r>   -11.1785     0.0000     4.0000 </r>
       <r>   -11.0483     0.0000     4.0000 </r>
       <r>   -10.9182     1.9986     4.2602 </r>
       <r>   -10.7880     1.9796     4.7851 </r>
       <r>   -10.6578     1.0059     5.2208 </r>
       <r>   -10.5276     1.2734     5.5486 </r>
       <r>   -10.3974     0.8339     5.7023 </r>
       <r>   -10.2672     0.5808     5.9037 </r>
       <r>   -10.1370     0.3679     5.9815 </r>
       <r>   -10.0069     0.0299     6.0000 </r>
       <r>    -9.8767     0.0000     6.0000 </r>
       <r>    -9.7465     0.0000     6.0000 </r>
       <r>    -9.6163     0.0000     6.0000 </r>
       <r>    -9.4861     0.0000     6.0000 </r>
       <r>    -9.3559     0.0000     6.0000 </r>
       <r>    -9.2257     0.0000     6.0000 </r>
       <r>    -9.0956     0.0000     6.0000 </r>
       <r>    -8.9654     0.0000     6.0000 </r>
       <r>    -8.8352     0.0000     6.0000 </r>
       <r>    -8.7050     0.0000     6.0000 </r>
       <r>    -8.5748     0.0000     6.0000 </r>
       <r>    -8.4446     0.0000     6.0000 </r>
       <r>    -8.3144     0.0000     6.0000 </r>
       <r>    -8.1843     0.0000     6.0000 </r>
       <r>    -8.0541     0.0000     6.0000 </r>
       <r>    -7.9239     0.1493     6.0194 </r>
       <r>    -7.7937     0.8994     6.1679 </r>
       <r>    -7.6635     1.4113     6.3986 </r>
       <r>    -7.5333     1.1613     6.7020 </r>
       <r>    -7.4031     1.5616     7.0119 </r>
       <r>    -7.2730     2.3450     7.4420 </r>
       <r>    -7.1428     2.5638     7.8924 </r>
       <r>    -7.0126     1.7238     8.2986 </r>
       <r>    -6.8824     2.6710     8.9102 </r>
       <r>    -6.7522     3.0756     9.4785 </r>
       <r>    -6.6220     3.4296    10.0168 </r>
       <r>    -6.4918     2.8591    10.4621 </r>
       <r>    -6.3617     1.7351    10.8079 </r>
       <r>    -6.2315     2.9006    11.2878 </r>
       <r>    -6.1013     1.2846    11.6243 </r>
       <r>    -5.9711     0.4233    11.8520 </r>
       <r>    -5.8409     0.1788    11.9373 </r>
       <r>    -5.7107     0.0000    11.9883 </r>
       <r>    -5.5805     0.1349    12.0058 </r>
       <r>    -5.4504     0.1200    12.0234 </r>
       <r>    -5.3202     0.0000    12.0234 </r>
       <r>    -5.1900     0.3014    12.0861 </r>
       <r>    -5.0598     0.3655    12.1570 </r>
       <r>    -4.9296     0.8491    12.2824 </r>
       <r>    -4.7994     0.3601    12.3320 </r>
       <r>    -4.6692     0.7009    12.4936 </r>
       <r>    -4.5391     1.9574    12.8212 </r>
       <r>    -4.4089     1.1585    12.9750 </r>
       <r>    -4.2787     1.7380    13.3434 </r>
       <r>    -4.1485     2.6365    13.8354 </r>
       <r>    -4.0183     3.2286    14.5570 </r>
       <r>    -3.8881     1.0367    14.8342 </r>
       <r>    -3.7579     2.4784    15.3031 </r>
       <r>    -3.6277     1.6434    15.7804 </r>
       <r>    -3.4976     1.3399    15.9987 </r>
       <r>    -3.3674     3.1419    16.4676 </r>
       <r>    -3.2372     1.9553    16.9225 </r>
       <r>    -3.1070     1.8358    17.3288 </r>
       <r>    -2.9768     2.5111    17.7488 </r>
       <r>    -2.8466     2.9103    18.4297 </r>
       <r>    -2.7164     1.8009    18.9415 </r>
       <r>    -2.5863     2.3796    19.2825 </r>
       <r>    -2.4561     2.7364    19.7625 </r>
       <r>    -2.3259     2.9586    20.2875 </r>
       <r>    -2.1957     3.0450    20.8495 </r>
       <r>    -2.0655     1.6479    21.2419 </r>
       <r>    -1.9353     3.8781    21.9502 </r>
       <r>    -1.8051     4.4273    22.5881 </r>
       <r>    -1.6750     1.8265    23.0386 </r>
       <r>    -1.5448     2.8930    23.8610 </r>
       <r>    -1.4146     3.8063    24.5854 </r>
       <r>    -1.2844     1.2483    25.0961 </r>
       <r>    -1.1542     2.5464    25.8628 </r>
       <r>    -1.0240     1.0897    26.3294 </r>
       <r>    -0.8938     2.1119    26.7554 </r>
       <r>    -0.7637     2.4065    27.1531 </r>
       <r>    -0.6335     1.8563    27.5385 </r>
       <r>    -0.5033     1.2909    27.8048 </r>
       <r>    -0.3731     1.5303    28.1641 </r>
       <r>    -0.2429     1.8173    28.4241 </r>
       <r>    -0.1127     2.0897    28.8424 </r>
       <r>     0.0175     1.7611    29.2800 </r>
       <r>     0.1476     1.0559    29.5164 </r>
       <r>     0.2778     1.5197    29.7877 </r>
       <r>     0.4080     2.3063    30.1948 </r>
       <r>     0.5382     2.0238    30.6268 </r>
       <r>     0.6684     1.2473    30.9827 </r>
       <r>     0.7986     2.5456    31.5267 </r>
       <r>     0.9288     2.1664    32.0281 </r>
       <r>     1.0589     2.1858    32.4994 </r>
       <r>     1.1891     2.6323    33.0732 </r>
       <r>     1.3193     2.6476    33.5205 </r>
       <r>     1.4495     2.5706    34.2253 </r>
       <r>     1.5797     1.9899    34.7356 </r>
       <r>     1.7099     3.3613    35.2931 </r>
       <r>     1.8401     2.9026    35.8896 </r>
       <r>     1.9702     2.4809    36.4363 </r>
       <r>     2.1004     4.2065    37.1297 </r>
       <r>     2.2306     2.0071    37.6168 </r>
       <r>     2.3608     2.3871    38.0881 </r>
       <r>     2.4910     3.4125    38.6825 </r>
       <r>     2.6212     4.4682    39.5114 </r>
       <r>     2.7514     2.4631    40.1058 </r>
       <r>     2.8816     2.6216    40.6694 </r>
       <r>     3.0117     2.2637    41.2127 </r>
       <r>     3.1419     4.0755    42.0696 </r>
       <r>     3.2721     2.3244    42.5604 </r>
       <r>     3.4023     1.8941    43.1020 </r>
       <r>     3.5325     1.3766    43.5112 </r>
       <r>     3.6627     2.6909    44.0573 </r>
       <r>     3.7929     2.3675    44.6598 </r>
       <r>     3.9230     3.9387    45.3565 </r>
       <r>     4.0532     2.3036    45.8546 </r>
       <r>     4.1834     1.4657    46.4369 </r>
       <r>     4.3136     1.1465    46.7235 </r>
       <r>     4.4438     3.6857    47.4525 </r>
       <r>     4.5740     1.1693    47.6952 </r>
       <r>     4.7042     0.4436    47.7999 </r>
       <r>     4.8343     1.0289    47.9543 </r>
       <r>     4.9645     0.1800    47.9844 </r>
       <r>     5.0947     0.1200    48.0000 </r>
       <r>     5.2249     0.0000    48.0000 </r>
       <r>     5.3551     0.0000    48.0000 </r>
       <r>     5.4853     0.0000    48.0000 </r>
       <r>     5.6155     0.0000    48.0000 </r>
       <r>     5.7456     0.0000    48.0000 </r>
       <r>     5.8758     0.0000    48.0000 </r>
       <r>     6.0060     0.0000    48.0000 </r>
       <r>     6.1362     0.0000    48.0000 </r>
       <r>     6.2664     0.0000    48.0000 </r>
       <r>     6.3966     0.0000    48.0000 </r>
       <r>     6.5268     0.0000    48.0000 </r>
       <r>     6.6569     0.0000    48.0000 </r>
       <r>     6.7871     0.0000    48.0000 </r>
       <r>     6.9173     0.0000    48.0000 </r>
       <r>     7.0475     0.0000    48.0000 </r>
       <r>     7.1777     0.0000    48.0000 </r>
       <r>     7.3079     0.0000    48.0000 </r>
       <r>     7.4381     0.0000    48.0000 </r>
       <r>     7.5682     0.0000    48.0000 </r>
       <r>     7.6984     0.0000    48.0000 </r>
       <r>     7.8286     0.0000    48.0000 </r>
       <r>     7.9588     0.0000    48.0000 </r>
       <r>     8.0890     0.0000    48.0000 </r>
       <r>     8.2192     0.0000    48.0000 </r>
       <r>     8.3494     0.0000    48.0000 </r>
       <r>     8.4795     0.0000    48.0000 </r>
       <r>     8.6097     0.0000    48.0000 </r>
       <r>     8.7399     0.0000    48.0000 </r>
       <r>     8.8701     0.0088    48.0012 </r>
       <r>     9.0003     0.0000    48.0039 </r>
       <r>     9.1305     0.0000    48.0039 </r>
       <r>     9.2607     0.0475    48.0452 </r>
       <r>     9.3908     1.2000    48.2734 </r>
       <r>     9.5210     1.0478    48.4372 </r>
       <r>     9.6512     2.8057    49.0410 </r>
       <r>     9.7814     2.8249    49.5943 </r>
       <r>     9.9116     2.8472    50.3824 </r>
       <r>    10.0418     1.2648    50.6608 </r>
       <r>    10.1720     1.5376    50.8838 </r>
       <r>    10.3022     1.7127    51.2894 </r>
       <r>    10.4323     1.4445    51.6881 </r>
       <r>    10.5625     2.0863    52.0294 </r>
       <r>    10.6927     1.9833    52.3441 </r>
       <r>    10.8229     1.9806    52.7188 </r>
       <r>    10.9531     2.0745    53.1529 </r>
       <r>    11.0833     1.7035    53.5655 </r>
       <r>    11.2135     1.2051    53.9264 </r>
       <r>    11.3436     1.5370    54.2235 </r>
       <r>    11.4738     1.4876    54.8577 </r>
       <r>    11.6040     2.5800    55.3749 </r>
       <r>    11.7342     1.9817    55.7111 </r>
       <r>    11.8644     3.3512    56.2800 </r>
       <r>    11.9946     1.2642    56.5435 </r>
       <r>    12.1248     2.5322    56.9429 </r>
       <r>    12.2549     1.3905    57.2357 </r>
       <r>    12.3851     1.6257    57.6257 </r>
       <r>    12.5153     3.5539    58.4549 </r>
       <r>    12.6455     2.7268    59.0269 </r>
       <r>    12.7757     2.6701    59.5586 </r>
       <r>    12.9059     2.6940    60.1632 </r>
       <r>    13.0361     3.6367    60.8914 </r>
       <r>    13.1662     0.9658    61.2703 </r>
       <r>    13.2964     2.2949    61.8261 </r>
       <r>    13.4266     1.2001    62.0351 </r>
       <r>    13.5568     1.5506    62.4870 </r>
       <r>    13.6870     1.7431    62.7855 </r>
       <r>    13.8172     2.1209    63.2214 </r>
       <r>    13.9474     1.9809    63.6993 </r>
       <r>    14.0775     3.4548    64.2857 </r>
       <r>    14.2077     1.5144    64.5878 </r>
       <r>    14.3379     2.5773    65.0894 </r>
       <r>    14.4681     1.6601    65.4778 </r>
       <r>    14.5983     3.6403    66.1028 </r>
       <r>    14.7285     3.2858    66.7364 </r>
       <r>    14.8587     1.9950    67.2285 </r>
       <r>    14.9888     1.5307    67.8126 </r>
       <r>    15.1190     3.4423    68.5419 </r>
       <r>    15.2492     2.5661    69.1427 </r>
       <r>    15.3794     4.0903    69.9036 </r>
       <r>    15.5096     2.9881    70.4320 </r>
       <r>    15.6398     3.3107    71.2591 </r>
       <r>    15.7700     3.2029    71.8623 </r>
       <r>    15.9001     3.6397    72.6379 </r>
       <r>    16.0303     3.2267    73.3029 </r>
       <r>    16.1605     2.8191    73.9061 </r>
       <r>    16.2907     4.5343    74.7270 </r>
       <r>    16.4209     4.9466    75.4955 </r>
       <r>    16.5511     4.0290    76.3292 </r>
       <r>    16.6813     2.4713    76.8764 </r>
       <r>    16.8115     3.8381    77.5387 </r>
       <r>    16.9416     2.1049    78.0865 </r>
       <r>    17.0718     2.5574    78.7626 </r>
       <r>    17.2020     3.0864    79.4877 </r>
       <r>    17.3322     2.6858    80.2559 </r>
       <r>    17.4624     2.6155    81.0358 </r>
       <r>    17.5926     1.5905    81.4805 </r>
       <r>    17.7228     3.8173    82.3016 </r>
       <r>    17.8529     1.6025    82.8219 </r>
       <r>    17.9831     1.9052    83.3847 </r>
       <r>    18.1133     2.3522    83.8804 </r>
       <r>    18.2435     3.6229    84.7021 </r>
       <r>    18.3737     2.1016    85.4064 </r>
       <r>    18.5039     3.2009    86.0651 </r>
       <r>    18.6341     3.1874    86.7392 </r>
       <r>    18.7642     2.1557    87.2689 </r>
       <r>    18.8944     2.3489    87.8097 </r>
       <r>    19.0246     2.8885    88.3174 </r>
       <r>    19.1548     2.7617    88.9299 </r>
       <r>    19.2850     4.7572    89.7756 </r>
       <r>    19.4152     2.4068    90.3055 </r>
       <r>    19.5454     4.2067    91.1492 </r>
       <r>    19.6755     2.9257    91.6856 </r>
       <r>    19.8057     1.8704    92.1224 </r>
       <r>    19.9359     2.8220    92.9260 </r>
       <r>    20.0661     2.0995    93.4374 </r>
       <r>    20.1963     3.1450    94.1594 </r>
       <r>    20.3265     4.6831    94.9651 </r>
       <r>    20.4567     3.1113    95.4832 </r>
       <r>    20.5868     1.1279    95.7640 </r>
       <r>    20.7170     0.5195    95.8958 </r>
       <r>    20.8472     0.2450    95.9772 </r>
       <r>    20.9774     0.0000    96.0000 </r>
       <r>    21.1076     0.0000    96.0000 </r>
       <r>    21.2378     0.0000    96.0000 </r>
       <r>    21.3680     0.0000    96.0000 </r>
       <r>    21.4981     0.0000    96.0000 </r>
       <r>    21.6283     0.0000    96.0000 </r>
       <r>    21.7585     0.0000    96.0000 </r>
       <r>    21.8887     0.0000    96.0000 </r>
       <r>    22.0189     0.0000    96.0000 </r>
       <r>    22.1491     0.0000    96.0000 </r>
       <r>    22.2793     0.0000    96.0000 </r>
       <r>    22.4094     0.0000    96.0000 </r>
       <r>    22.5396     0.0000    96.0000 </r>
       <r>    22.6698     0.0000    96.0000 </r>
      </set>
     </set>
    </array>
   </total>
  </dos>
 </calculation>
 <structure name="finalpos" >
  <crystal>
   <varray name="basis" >
    <v>       5.21128944      -0.00183198      -0.00132293 </v>
    <v>      -2.35472141       4.64895989       0.00132293 </v>
    <v>      -2.35471712       1.44743372       4.41788713 </v>
   </varray>
   <i name="volume">    106.99348123 </i>
   <varray name="rec_basis" >
    <v>       0.19194314       0.09720011       0.07045927 </v>
    <v>       0.00005775       0.21515118      -0.07045927 </v>
    <v>       0.00005746      -0.00003532       0.22639474 </v>
   </varray>
  </crystal>
  <varray name="positions" >
   <v>       0.49999994       0.49999994       0.50000000 </v>
   <v>       0.66934316       0.00325553       0.00325509 </v>
   <v>       0.99674570       0.33065808       0.00325535 </v>
   <v>       0.32396096       0.19732857       0.19732731 </v>
   <v>       0.80267307       0.67604060       0.19732743 </v>
   <v>       0.19732817       0.80267348       0.32396087 </v>
   <v>       0.99674512       0.00325603       0.33065728 </v>
   <v>       0.00325603       0.99674512       0.66934272 </v>
   <v>       0.80267348       0.19732817       0.67603913 </v>
   <v>       0.19732857       0.32396096       0.80267269 </v>
   <v>       0.67604060       0.80267307       0.80267257 </v>
   <v>       0.00325553       0.66934316       0.99674491 </v>
   <v>       0.33065808       0.99674570       0.99674465 </v>
   <v>       0.62342718       0.37657444       0.37657565 </v>
   <v>       0.37657444       0.62342718       0.62342435 </v>
  </varray>
 </structure>
</modeling>
