 running on   24 total cores
 distrk:  each k-point on   24 cores,    1 groups
 distr:  one band on    1 cores,   24 groups
 OpenACC runtime initialized ...   24 GPUs detected
 vasp.6.3.2 27Jun22 (build Jan 18 2024 14:18:24) complex                         
 POSCAR found type information on POSCAR BeB N 
 POSCAR found :  3 types and      15 ions
 Reading from existing POTCAR
 scaLAPACK will be used selectively (only on CPU)
 -----------------------------------------------------------------------------
|                                                                             |
|           W    W    AA    RRRRR   N    N  II  N    N   GGGG   !!!           |
|           W    W   A  A   R    R  NN   N  II  NN   N  G    G  !!!           |
|           W    W  A    A  R    R  N N  N  II  N N  N  G       !!!           |
|           W WW W  AAAAAA  RRRRR   N  N N  II  N  N N  G  GGG   !            |
|           WW  WW  A    A  R   R   N   NN  II  N   NN  G    G                |
|           W    W  A    A  R    R  N    N  II  N    N   GGGG   !!!           |
|                                                                             |
|     For optimal performance we recommend to set                             |
|       NCORE = 2 up to number-of-cores-per-socket                            |
|     NCORE specifies how many cores store one orbital (NPAR=cpu/NCORE).      |
|     This setting can greatly improve the performance of VASP for DFT.       |
|     The default, NCORE=1 might be grossly inefficient on modern             |
|     multi-core architectures or massively parallel machines. Do your        |
|     own testing! More info at https://www.vasp.at/wiki/index.php/NCORE      |
|     Unfortunately you need to use the default for GW and RPA                |
|     calculations (for HF NCORE is supported but not extensively tested      |
|     yet).                                                                   |
|                                                                             |
 -----------------------------------------------------------------------------

 Reading from existing POTCAR
 LDA part: xc-table for Pade appr. of Perdew
 POSCAR, INCAR and KPOINTS ok, starting setup
 FFT: planning ... GRIDC
 FFT: planning ... GRID_SOFT
 FFT: planning ... GRID
 WAVECAR not read
 entering main loop
       N       E                     dE             d eps       ncg     rms          ort
DAV:   1    -0.239653482752E+03   -0.23965E+03   -0.26815E+04  3120   0.974E+02
DAV:   2    -0.424966537090E+03   -0.18531E+03   -0.17149E+03  3120   0.189E+02
DAV:   3    -0.431199597154E+03   -0.62331E+01   -0.62089E+01  3120   0.325E+01
DAV:   4    -0.431233685412E+03   -0.34088E-01   -0.34086E-01  3120   0.269E+00
DAV:   5    -0.129091504920E+03    0.30214E+03   -0.43231E+00  3120   0.109E+01
 gam= 0.000 g(H,U,f)=  0.142E+02 0.414E+01 0.488E-48 ort(H,U,f) = 0.000E+00 0.000E+00 0.000E+00
SDA:   6    -0.114335040042E+03    0.14756E+02   -0.43231E+00  3120   0.184E+02 0.000E+00
 gam= 0.000 trial= 0.400  step= 0.587 mean= 0.400
 gam= 0.077 g(H,U,f)=  0.733E+00 0.681E+00 0.427E-46 ort(H,U,f) =-0.172E+01 0.158E+01 0.102E-45
CGA:   7    -0.119716893805E+03   -0.53819E+01   -0.53966E+01  3120   0.141E+01-0.137E+00
 gam= 0.077 trial= 0.409  step= 1.098 mean= 0.409
 gam= 0.326 g(H,U,f)=  0.354E+00 0.106E+00 0.185E-15 ort(H,U,f) =-0.267E+00 0.230E+00 0.653E-15
CGA:   8    -0.120476159271E+03   -0.75927E+00   -0.77105E+00  3120   0.460E+00-0.367E-01
 gam= 0.326 trial= 0.444  step= 1.009 mean= 0.444
 gam= 0.159 g(H,U,f)=  0.683E-01 0.505E-02 0.119E-12 ort(H,U,f) =-0.331E-01 0.309E-01 0.168E-11
CGA:   9    -0.120701847171E+03   -0.22569E+00   -0.22619E+00  3120   0.733E-01-0.219E-02
 gam= 0.159 trial= 0.472  step= 0.985 mean= 0.472
 gam= 0.154 g(H,U,f)=  0.102E-01 0.115E-02 0.634E-65 ort(H,U,f) =-0.708E-03 0.641E-03-0.489E-64
CGA:  10    -0.120737795068E+03   -0.35948E-01   -0.35962E-01  3120   0.113E-01-0.676E-04
 gam= 0.154 trial= 0.498  step= 0.888 mean= 0.498
 gam= 0.161 g(H,U,f)=  0.131E-02 0.519E-03 0.133E-46 ort(H,U,f) =-0.390E-03 0.392E-03-0.238E-47
CGA:  11    -0.120742818292E+03   -0.50232E-02   -0.50228E-02  3120   0.183E-02 0.209E-05
 gam= 0.161 trial= 0.517  step= 1.028 mean= 0.517
 gam= 0.187 g(H,U,f)=  0.299E-03 0.430E-04 0.242E-43 ort(H,U,f) =-0.133E-03 0.144E-03 0.468E-43
CGA:  12    -0.120743760467E+03   -0.94217E-03   -0.93936E-03  3120   0.342E-03 0.109E-04
 gam= 0.187 trial= 0.543  step= 0.934 mean= 0.543
 gam= 0.185 g(H,U,f)=  0.574E-04 0.577E-05 0.380E-41 ort(H,U,f) =-0.149E-04 0.187E-04 0.110E-40
CGA:  13    -0.120743921739E+03   -0.16127E-03   -0.16054E-03  3120   0.632E-04 0.377E-05
 gam= 0.185 trial= 0.562  step= 0.861 mean= 0.562
 gam= 0.178 g(H,U,f)=  0.103E-04 0.955E-06 0.545E-40 ort(H,U,f) =-0.313E-05 0.327E-05 0.176E-39
CGA:  14    -0.120743949279E+03   -0.27540E-04   -0.27519E-04  3120   0.113E-04 0.141E-06
 gam= 0.178 trial= 0.577  step= 0.943 mean= 0.577
 gam= 0.197 g(H,U,f)=  0.203E-05 0.192E-06 0.670E-40 ort(H,U,f) =-0.736E-06 0.314E-06 0.300E-39
CGA:  15    -0.120743954526E+03   -0.52471E-05   -0.53243E-05  3120   0.222E-05-0.423E-06
 gam= 0.197 trial= 0.596  step= 0.877 mean= 0.596
 final diagonalization
   1 F= -.12074395E+03 E0= -.12074395E+03  d E =-.385592E-37
 writing wavefunctions
 PROFILE, used timers:     433
