B12BeN2                                 
            1
     5.211289   -0.001832   -0.001323
    -2.354721    4.648960    0.001323
    -2.354717    1.447434    4.417887
   Be   B    N 
     1    12     2
Direct configuration=     1
   0.49999994  0.49999994  0.50000000
   0.66934316  0.00325553  0.00325509
   0.99674570  0.33065808  0.00325535
   0.32396096  0.19732857  0.19732731
   0.80267307  0.67604060  0.19732743
   0.19732817  0.80267348  0.32396087
   0.99674512  0.00325603  0.33065728
   0.00325603  0.99674512  0.66934272
   0.80267348  0.19732817  0.67603913
   0.19732857  0.32396096  0.80267269
   0.67604060  0.80267307  0.80267257
   0.00325553  0.66934316  0.99674491
   0.33065808  0.99674570  0.99674465
   0.62342718  0.37657444  0.37657565
   0.37657444  0.62342718  0.62342435
