   8   8   0   0
  0.1624377E+02  0.3644469E-09  0.3644469E-09  0.9783819E-09  0.5000000E-15
   1.0000000000000000E-004
  CAR 
 Be4P3Rb                                 
     26.06406350   -108.11020275  301      3.81349768      1.00000000
   -108.110  0.0000E+00  0.0000E+00
   -107.663  0.0000E+00  0.0000E+00
   -107.216  0.0000E+00  0.0000E+00
   -106.768  0.0000E+00  0.0000E+00
   -106.321  0.0000E+00  0.0000E+00
   -105.874  0.0000E+00  0.0000E+00
   -105.427  0.0000E+00  0.0000E+00
   -104.979  0.0000E+00  0.0000E+00
   -104.532  0.0000E+00  0.0000E+00
   -104.085  0.0000E+00  0.0000E+00
   -103.638  0.0000E+00  0.0000E+00
   -103.190  0.0000E+00  0.0000E+00
   -102.743  0.0000E+00  0.0000E+00
   -102.296  0.0000E+00  0.0000E+00
   -101.849  0.0000E+00  0.8000E-02
   -101.401  0.0000E+00  0.8000E-02
   -100.954  0.0000E+00  0.8000E-02
   -100.507  0.0000E+00  0.8000E-02
   -100.060  0.0000E+00  0.8000E-02
    -99.612  0.0000E+00  0.8000E-02
    -99.165  0.0000E+00  0.8000E-02
    -98.718  0.0000E+00  0.8000E-02
    -98.271  0.0000E+00  0.8000E-02
    -97.824  0.0000E+00  0.8000E-02
    -97.376  0.0000E+00  0.8000E-02
    -96.929  0.0000E+00  0.8000E-02
    -96.482  0.0000E+00  0.8000E-02
    -96.035  0.0000E+00  0.8000E-02
    -95.587  0.0000E+00  0.8000E-02
    -95.140  0.0000E+00  0.8000E-02
    -94.693  0.0000E+00  0.8000E-02
    -94.246  0.0000E+00  0.8000E-02
    -93.798  0.0000E+00  0.8000E-02
    -93.351  0.0000E+00  0.8000E-02
    -92.904  0.0000E+00  0.8000E-02
    -92.457  0.0000E+00  0.8000E-02
    -92.009  0.0000E+00  0.8000E-02
    -91.562  0.0000E+00  0.8000E-02
    -91.115  0.0000E+00  0.8000E-02
    -90.668  0.0000E+00  0.8000E-02
    -90.220  0.0000E+00  0.8000E-02
    -89.773  0.0000E+00  0.8000E-02
    -89.326  0.0000E+00  0.8000E-02
    -88.879  0.0000E+00  0.8000E-02
    -88.431  0.0000E+00  0.8000E-02
    -87.984  0.0000E+00  0.8000E-02
    -87.537  0.0000E+00  0.8000E-02
    -87.090  0.0000E+00  0.8000E-02
    -86.642  0.0000E+00  0.8000E-02
    -86.195  0.0000E+00  0.8000E-02
    -85.748  0.0000E+00  0.8000E-02
    -85.301  0.0000E+00  0.8000E-02
    -84.853  0.0000E+00  0.8000E-02
    -84.406  0.0000E+00  0.8000E-02
    -83.959  0.0000E+00  0.8000E-02
    -83.512  0.0000E+00  0.8000E-02
    -83.064  0.0000E+00  0.8000E-02
    -82.617  0.0000E+00  0.8000E-02
    -82.170  0.0000E+00  0.8000E-02
    -81.723  0.0000E+00  0.8000E-02
    -81.275  0.0000E+00  0.8000E-02
    -80.828  0.0000E+00  0.8000E-02
    -80.381  0.0000E+00  0.8000E-02
    -79.934  0.0000E+00  0.8000E-02
    -79.486  0.0000E+00  0.8000E-02
    -79.039  0.0000E+00  0.8000E-02
    -78.592  0.0000E+00  0.8000E-02
    -78.145  0.0000E+00  0.8000E-02
    -77.697  0.0000E+00  0.8000E-02
    -77.250  0.0000E+00  0.8000E-02
    -76.803  0.0000E+00  0.8000E-02
    -76.356  0.0000E+00  0.8000E-02
    -75.908  0.0000E+00  0.8000E-02
    -75.461  0.0000E+00  0.8000E-02
    -75.014  0.0000E+00  0.8000E-02
    -74.567  0.0000E+00  0.8000E-02
    -74.119  0.0000E+00  0.8000E-02
    -73.672  0.0000E+00  0.8000E-02
    -73.225  0.0000E+00  0.8000E-02
    -72.778  0.0000E+00  0.8000E-02
    -72.330  0.0000E+00  0.8000E-02
    -71.883  0.0000E+00  0.8000E-02
    -71.436  0.0000E+00  0.8000E-02
    -70.989  0.0000E+00  0.8000E-02
    -70.541  0.0000E+00  0.8000E-02
    -70.094  0.0000E+00  0.8000E-02
    -69.647  0.0000E+00  0.8000E-02
    -69.200  0.0000E+00  0.8000E-02
    -68.752  0.0000E+00  0.8000E-02
    -68.305  0.0000E+00  0.8000E-02
    -67.858  0.0000E+00  0.8000E-02
    -67.411  0.0000E+00  0.8000E-02
    -66.963  0.0000E+00  0.8000E-02
    -66.516  0.0000E+00  0.8000E-02
    -66.069  0.0000E+00  0.8000E-02
    -65.622  0.0000E+00  0.8000E-02
    -65.174  0.0000E+00  0.8000E-02
    -64.727  0.0000E+00  0.8000E-02
    -64.280  0.0000E+00  0.8000E-02
    -63.833  0.0000E+00  0.8000E-02
    -63.385  0.0000E+00  0.8000E-02
    -62.938  0.0000E+00  0.8000E-02
    -62.491  0.0000E+00  0.8000E-02
    -62.044  0.0000E+00  0.8000E-02
    -61.596  0.0000E+00  0.8000E-02
    -61.149  0.0000E+00  0.8000E-02
    -60.702  0.0000E+00  0.8000E-02
    -60.255  0.0000E+00  0.8000E-02
    -59.807  0.0000E+00  0.8000E-02
    -59.360  0.0000E+00  0.8000E-02
    -58.913  0.0000E+00  0.8000E-02
    -58.466  0.0000E+00  0.8000E-02
    -58.018  0.0000E+00  0.8000E-02
    -57.571  0.0000E+00  0.8000E-02
    -57.124  0.0000E+00  0.8000E-02
    -56.677  0.0000E+00  0.8000E-02
    -56.229  0.0000E+00  0.8000E-02
    -55.782  0.0000E+00  0.8000E-02
    -55.335  0.0000E+00  0.8000E-02
    -54.888  0.0000E+00  0.8000E-02
    -54.440  0.0000E+00  0.8000E-02
    -53.993  0.0000E+00  0.8000E-02
    -53.546  0.0000E+00  0.8000E-02
    -53.099  0.0000E+00  0.8000E-02
    -52.652  0.0000E+00  0.8000E-02
    -52.204  0.0000E+00  0.8000E-02
    -51.757  0.0000E+00  0.8000E-02
    -51.310  0.0000E+00  0.8000E-02
    -50.863  0.0000E+00  0.8000E-02
    -50.415  0.0000E+00  0.8000E-02
    -49.968  0.0000E+00  0.8000E-02
    -49.521  0.0000E+00  0.8000E-02
    -49.074  0.0000E+00  0.8000E-02
    -48.626  0.0000E+00  0.8000E-02
    -48.179  0.0000E+00  0.8000E-02
    -47.732  0.0000E+00  0.8000E-02
    -47.285  0.0000E+00  0.8000E-02
    -46.837  0.0000E+00  0.8000E-02
    -46.390  0.0000E+00  0.8000E-02
    -45.943  0.0000E+00  0.8000E-02
    -45.496  0.0000E+00  0.8000E-02
    -45.048  0.0000E+00  0.8000E-02
    -44.601  0.0000E+00  0.8000E-02
    -44.154  0.0000E+00  0.8000E-02
    -43.707  0.0000E+00  0.8000E-02
    -43.259  0.0000E+00  0.8000E-02
    -42.812  0.0000E+00  0.8000E-02
    -42.365  0.0000E+00  0.8000E-02
    -41.918  0.0000E+00  0.8000E-02
    -41.470  0.0000E+00  0.8000E-02
    -41.023  0.0000E+00  0.8000E-02
    -40.576  0.0000E+00  0.8000E-02
    -40.129  0.0000E+00  0.8000E-02
    -39.681  0.0000E+00  0.8000E-02
    -39.234  0.0000E+00  0.8000E-02
    -38.787  0.0000E+00  0.8000E-02
    -38.340  0.0000E+00  0.8000E-02
    -37.892  0.0000E+00  0.8000E-02
    -37.445  0.0000E+00  0.8000E-02
    -36.998  0.0000E+00  0.8000E-02
    -36.551  0.0000E+00  0.8000E-02
    -36.103  0.0000E+00  0.8000E-02
    -35.656  0.0000E+00  0.8000E-02
    -35.209  0.0000E+00  0.8000E-02
    -34.762  0.0000E+00  0.8000E-02
    -34.314  0.0000E+00  0.8000E-02
    -33.867  0.0000E+00  0.8000E-02
    -33.420  0.0000E+00  0.8000E-02
    -32.973  0.0000E+00  0.8000E-02
    -32.525  0.0000E+00  0.8000E-02
    -32.078  0.0000E+00  0.8000E-02
    -31.631  0.0000E+00  0.8000E-02
    -31.184  0.0000E+00  0.8000E-02
    -30.736  0.0000E+00  0.8000E-02
    -30.289  0.0000E+00  0.8000E-02
    -29.842  0.0000E+00  0.8000E-02
    -29.395  0.0000E+00  0.8000E-02
    -28.947  0.0000E+00  0.8000E-02
    -28.500  0.0000E+00  0.8000E-02
    -28.053  0.0000E+00  0.8000E-02
    -27.606  0.0000E+00  0.8000E-02
    -27.158  0.0000E+00  0.8000E-02
    -26.711  0.0000E+00  0.8000E-02
    -26.264  0.0000E+00  0.8000E-02
    -25.817  0.0000E+00  0.8000E-02
    -25.369  0.0000E+00  0.1000E-01
    -24.922  0.0000E+00  0.1000E-01
    -24.475  0.0000E+00  0.1000E-01
    -24.028  0.0000E+00  0.1000E-01
    -23.580  0.0000E+00  0.1000E-01
    -23.133  0.0000E+00  0.1000E-01
    -22.686  0.0000E+00  0.1000E-01
    -22.239  0.0000E+00  0.1000E-01
    -21.791  0.0000E+00  0.1000E-01
    -21.344  0.0000E+00  0.1000E-01
    -20.897  0.0000E+00  0.1000E-01
    -20.450  0.0000E+00  0.1000E-01
    -20.002  0.0000E+00  0.1000E-01
    -19.555  0.0000E+00  0.1000E-01
    -19.108  0.0000E+00  0.1000E-01
    -18.661  0.0000E+00  0.1000E-01
    -18.213  0.0000E+00  0.1000E-01
    -17.766  0.0000E+00  0.1000E-01
    -17.319  0.0000E+00  0.1000E-01
    -16.872  0.0000E+00  0.1000E-01
    -16.424  0.0000E+00  0.1000E-01
    -15.977  0.0000E+00  0.1000E-01
    -15.530  0.0000E+00  0.1000E-01
    -15.083  0.0000E+00  0.1000E-01
    -14.635  0.0000E+00  0.1000E-01
    -14.188  0.0000E+00  0.1000E-01
    -13.741  0.0000E+00  0.1000E-01
    -13.294  0.0000E+00  0.1000E-01
    -12.846  0.0000E+00  0.1000E-01
    -12.399  0.0000E+00  0.1000E-01
    -11.952  0.0000E+00  0.1000E-01
    -11.505  0.0000E+00  0.1000E-01
    -11.057  0.0000E+00  0.1000E-01
    -10.610  0.9107E-04  0.1004E-01
    -10.163  0.0000E+00  0.1037E-01
     -9.716  0.0000E+00  0.1086E-01
     -9.268  0.1095E-02  0.1169E-01
     -8.821  0.3651E-03  0.1384E-01
     -8.374  0.1217E-02  0.1697E-01
     -7.927  0.2535E-03  0.1836E-01
     -7.480  0.7300E-03  0.2007E-01
     -7.032  0.3438E-03  0.2199E-01
     -6.585  0.0000E+00  0.2200E-01
     -6.138  0.0000E+00  0.2200E-01
     -5.691  0.0000E+00  0.2200E-01
     -5.243  0.0000E+00  0.2200E-01
     -4.796  0.0000E+00  0.2200E-01
     -4.349  0.0000E+00  0.2200E-01
     -3.902  0.0000E+00  0.2200E-01
     -3.454  0.1179E-06  0.2200E-01
     -3.007  0.8740E-03  0.2304E-01
     -2.560  0.4620E-03  0.2433E-01
     -2.113  0.3650E-03  0.2543E-01
     -1.665  0.3042E-04  0.2629E-01
     -1.218  0.3322E-03  0.2665E-01
     -0.771  0.2837E-18  0.2743E-01
     -0.324  0.6663E-03  0.2862E-01
      0.124  0.9355E-03  0.3016E-01
      0.571  0.9734E-03  0.3252E-01
      1.018  0.2290E-04  0.3341E-01
      1.465  0.6526E-03  0.3516E-01
      1.913  0.1082E-02  0.3661E-01
      2.360  0.8613E-03  0.3809E-01
      2.807  0.0000E+00  0.3925E-01
      3.254  0.1521E-03  0.3970E-01
      3.702  0.6084E-04  0.4000E-01
      4.149  0.0000E+00  0.4000E-01
      4.596  0.0000E+00  0.4000E-01
      5.043  0.0000E+00  0.4000E-01
      5.491  0.1146E-03  0.4016E-01
      5.938  0.8487E-05  0.4041E-01
      6.385  0.4882E-12  0.4079E-01
      6.832  0.4857E-03  0.4237E-01
      7.280  0.6212E-04  0.4388E-01
      7.727  0.2844E-03  0.4598E-01
      8.174  0.5042E-03  0.4789E-01
      8.621  0.1123E-02  0.4964E-01
      9.069  0.1443E-03  0.5049E-01
      9.516  0.1313E-02  0.5290E-01
      9.963  0.8526E-03  0.5546E-01
     10.410  0.9044E-03  0.5698E-01
     10.858  0.6562E-03  0.5937E-01
     11.305  0.4694E-03  0.6201E-01
     11.752  0.5105E-03  0.6360E-01
     12.199  0.6964E-03  0.6518E-01
     12.647  0.7301E-03  0.6770E-01
     13.094  0.6046E-03  0.6933E-01
     13.541  0.3650E-03  0.7080E-01
     13.988  0.7579E-03  0.7275E-01
     14.436  0.6702E-03  0.7559E-01
     14.883  0.1217E-03  0.7741E-01
     15.330  0.5867E-03  0.7981E-01
     15.777  0.4936E-03  0.8196E-01
     16.225  0.1426E-03  0.8322E-01
     16.672  0.6554E-03  0.8488E-01
     17.119  0.4969E-03  0.8658E-01
     17.566  0.7132E-03  0.8923E-01
     18.014  0.1072E-02  0.9162E-01
     18.461  0.8300E-04  0.9284E-01
     18.908  0.7364E-03  0.9486E-01
     19.355  0.8477E-17  0.9567E-01
     19.803  0.0000E+00  0.9595E-01
     20.250  0.0000E+00  0.9600E-01
     20.697  0.0000E+00  0.9600E-01
     21.144  0.0000E+00  0.9600E-01
     21.592  0.0000E+00  0.9600E-01
     22.039  0.0000E+00  0.9600E-01
     22.486  0.0000E+00  0.9600E-01
     22.933  0.0000E+00  0.9600E-01
     23.381  0.0000E+00  0.9600E-01
     23.828  0.0000E+00  0.9600E-01
     24.275  0.0000E+00  0.9600E-01
     24.722  0.0000E+00  0.9600E-01
     25.170  0.0000E+00  0.9600E-01
     25.617  0.0000E+00  0.9600E-01
     26.064  0.0000E+00  0.9600E-01
