Automatically generated mesh
      20
Reciprocal lattice
    0.00000000000000    0.00000000000000    0.00000000000000             1
    0.14285714285715    0.00000000000000    0.00000000000000             4
    0.28571428571429    0.00000000000000    0.00000000000000             4
    0.42857142857143    0.00000000000000    0.00000000000000             4
    0.14285714285715    0.14285714285715    0.00000000000000             4
    0.28571428571429    0.14285714285715    0.00000000000000             8
    0.42857142857143    0.14285714285715    0.00000000000000             8
    0.28571428571429    0.28571428571429    0.00000000000000             4
    0.42857142857143    0.28571428571429    0.00000000000000             8
    0.42857142857143    0.42857142857143    0.00000000000000             4
    0.00000000000000    0.00000000000000    0.33333333333334             2
    0.14285714285715    0.00000000000000    0.33333333333334             8
    0.28571428571429    0.00000000000000    0.33333333333334             8
    0.42857142857143    0.00000000000000    0.33333333333334             8
    0.14285714285715    0.14285714285715    0.33333333333334             8
    0.28571428571429    0.14285714285715    0.33333333333334            16
    0.42857142857143    0.14285714285715    0.33333333333334            16
    0.28571428571429    0.28571428571429    0.33333333333334             8
    0.42857142857143    0.28571428571429    0.33333333333334            16
    0.42857142857143    0.42857142857143    0.33333333333334             8
