       N       E                     dE             d eps       ncg     rms          ort
DAV:   1    -0.868624232689E+03   -0.86862E+03   -0.19459E+04   960   0.138E+03
DAV:   2    -0.108286486131E+04   -0.21424E+03   -0.20373E+03   960   0.230E+02
DAV:   3    -0.109821941803E+04   -0.15355E+02   -0.15298E+02   960   0.498E+01
DAV:   4    -0.109859888394E+04   -0.37947E+00   -0.37945E+00   960   0.668E+00
DAV:   5    -0.404402457431E+02    0.10582E+04   -0.54906E+00   960   0.908E+00
SDA:   6    -0.376475893296E+02    0.27927E+01   -0.54906E+00   960   0.317E+01 0.000E+00
CGA:   7    -0.388758738488E+02   -0.12283E+01   -0.12257E+01   960   0.525E+00 0.262E-01
CGA:   8    -0.389857485899E+02   -0.10987E+00   -0.10988E+00   960   0.406E+00 0.271E-02
CGA:   9    -0.390806255852E+02   -0.94877E-01   -0.94862E-01   960   0.148E+00 0.777E-03
CGA:  10    -0.391074562242E+02   -0.26831E-01   -0.26839E-01   960   0.414E-01 0.213E-03
CGA:  11    -0.391161727937E+02   -0.87166E-02   -0.87165E-02   960   0.134E-01 0.290E-04
CGA:  12    -0.391193797148E+02   -0.32069E-02   -0.32068E-02   960   0.517E-02 0.385E-05
CGA:  13    -0.391207266029E+02   -0.13469E-02   -0.13469E-02   960   0.203E-02-0.238E-06
CGA:  14    -0.391212394730E+02   -0.51287E-03   -0.51299E-03   960   0.633E-03-0.286E-05
CGA:  15    -0.391214137429E+02   -0.17427E-03   -0.17448E-03   960   0.238E-03-0.340E-05
CGA:  16    -0.391214804913E+02   -0.66748E-04   -0.66965E-04   960   0.906E-04-0.332E-05
CGA:  17    -0.391215053344E+02   -0.24843E-04   -0.24995E-04   960   0.354E-04-0.258E-05
CGA:  18    -0.391215146918E+02   -0.93574E-05   -0.94369E-05   960   0.141E-04-0.159E-05
   1 F= -.39121515E+02 E0= -.39121515E+02  d E =-.391215E+02
