 vasp.6.3.2 27Jun22 (build Jan 18 2024 14:18:24) complex                         
 executed on    LinuxNV_CrayMPICH date 2024.05.19  19:45:49
 running on   24 total cores
 distrk:  each k-point on   24 cores,    1 groups
 distr:  one band on NCORE=   1 cores,   24 groups


--------------------------------------------------------------------------------------------------------


 INCAR:
   SYSTEM = Be4P3Rb
   ENCUT = 400
   PREC = Accurate
   ISTART = 0
   ICHARG = 2
   LCHARG = .FALSE.
   LWAVE = .FALSE.
   LHFCALC = .TRUE.
   HFSCREEN = 0.2
   AEXX = 0.25
   ALGO = All
   GGA = PE
   ISIF = 3
   NSW = 1000
   IBRION = 2
   EDIFFG = -1.0E-2
   EDIFF = 1E-5
   ISMEAR = 0
   SIGMA = 0.01

 POTCAR:    PAW_PBE Rb_sv 06Sep2000               
 POTCAR:    PAW_PBE Be_sv 06Sep2000               
 POTCAR:    PAW_PBE P 06Sep2000                   
 -----------------------------------------------------------------------------
|                                                                             |
|           W    W    AA    RRRRR   N    N  II  N    N   GGGG   !!!           |
|           W    W   A  A   R    R  NN   N  II  NN   N  G    G  !!!           |
|           W    W  A    A  R    R  N N  N  II  N N  N  G       !!!           |
|           W WW W  AAAAAA  RRRRR   N  N N  II  N  N N  G  GGG   !            |
|           WW  WW  A    A  R   R   N   NN  II  N   NN  G    G                |
|           W    W  A    A  R    R  N    N  II  N    N   GGGG   !!!           |
|                                                                             |
|     For optimal performance we recommend to set                             |
|       NCORE = 2 up to number-of-cores-per-socket                            |
|     NCORE specifies how many cores store one orbital (NPAR=cpu/NCORE).      |
|     This setting can greatly improve the performance of VASP for DFT.       |
|     The default, NCORE=1 might be grossly inefficient on modern             |
|     multi-core architectures or massively parallel machines. Do your        |
|     own testing! More info at https://www.vasp.at/wiki/index.php/NCORE      |
|     Unfortunately you need to use the default for GW and RPA                |
|     calculations (for HF NCORE is supported but not extensively tested      |
|     yet).                                                                   |
|                                                                             |
 -----------------------------------------------------------------------------

 POTCAR:    PAW_PBE Rb_sv 06Sep2000               
   SHA256 =  06c38fe1ec7709d96d3959f5f2c66fec330a93b52b042a8fb2dfe6a3a3fb06c1 Rb_sv/POTCAR          
   COPYR  = (c) Copyright 06Sep2000 Georg Kresse                                                    
   COPYR  = This file is part of the software VASP. Any use, copying, and all other rights are regul
   COPYR  = If you do not have a valid VASP license, you may not use, copy or distribute this file. 
   VRHFIN =Rb: 4s4p5s                                                                               
   LEXCH  = PE                                                                                      
   EATOM  =   662.5034 eV,   48.6926 Ry                                                             
                                                                                                    
   TITEL  = PAW_PBE Rb_sv 06Sep2000                                                                 
   LULTRA =        F    use ultrasoft PP ?                                                          
   IUNSCR =        1    unscreen: 0-lin 1-nonlin 2-no                                               
   RPACOR =    2.200    partial core radius                                                         
   POMASS =   85.468; ZVAL   =    9.000    mass and valenz                                          
   RCORE  =    2.500    outmost cutoff radius                                                       
   RWIGS  =    4.570; RWIGS  =    2.418    wigner-seitz radius (au A)                               
   ENMAX  =  220.112; ENMIN  =  165.084 eV                                                          
   RCLOC  =    2.200    cutoff for local pot                                                        
   LCOR   =        T    correct aug charges                                                         
   LPAW   =        T    paw PP                                                                      
   EAUG   =  423.861                                                                                
   DEXC   =    0.000                                                                                
   RMAX   =    2.546    core radius for proj-oper                                                   
   RAUG   =    1.300    factor for augmentation sphere                                              
   RDEP   =    2.541    radius for radial grids                                                     
   RDEPT  =    2.044    core radius for aug-charge                                                  
                                                                                                    
   Atomic configuration                                                                             
   10 entries                                                                                       
     n  l   j            E        occ.                                                              
     1  0  0.50    -15031.5419   2.0000                                                             
     2  0  0.50     -2007.8842   2.0000                                                             
     2  1  1.50     -1779.8144   6.0000                                                             
     3  0  0.50      -297.9619   2.0000                                                             
     3  1  1.50      -224.8335   6.0000                                                             
     3  2  2.50      -103.9539  10.0000                                                             
     4  0  0.50       -31.8932   2.0000                                                             
     5  0  0.50        -2.2327   0.9990                                                             
     4  1  1.50       -15.9645   6.0000                                                             
     4  2  1.50        -0.0020   0.0010                                                             
   Description                                                                                      
     l       E           TYP  RCUT    TYP  RCUT                                                     
     0    -31.8932387     23  2.500                                                                 
     0     -2.2326525     23  2.500                                                                 
     1    -15.9644597     23  2.500                                                                 
     1    -17.3250423     23  2.500                                                                 
     2     -0.0020100     23  2.500                                                                 
  local pseudopotential read in
  partial core-charges read in
  partial kinetic energy density read in
  atomic valenz-charges read in
  non local Contribution for L=            0  read in
    real space projection operators read in
  non local Contribution for L=            0  read in
    real space projection operators read in
  non local Contribution for L=            1  read in
    real space projection operators read in
  non local Contribution for L=            1  read in
    real space projection operators read in
  non local Contribution for L=            2  read in
    real space projection operators read in
    PAW grid and wavefunctions read in
 
   number of l-projection  operators is LMAX  =            5
   number of lm-projection operators is LMMAX =           13
 
 POTCAR:    PAW_PBE Be_sv 06Sep2000               
   SHA256 =  95d73059eaef0de9a2d42225277cca956d5b2c38504d1b500b1a4c08b9931b7a Be_sv/POTCAR          
   COPYR  = (c) Copyright 06Sep2000 Georg Kresse                                                    
   COPYR  = This file is part of the software VASP. Any use, copying, and all other rights are regul
   COPYR  = If you do not have a valid VASP license, you may not use, copy or distribute this file. 
   VRHFIN =Be: s2p0                                                                                 
   LEXCH  = PE                                                                                      
   EATOM  =   398.1457 eV,   29.2629 Ry                                                             
                                                                                                    
   TITEL  = PAW_PBE Be_sv 06Sep2000                                                                 
   LULTRA =        F    use ultrasoft PP ?                                                          
   IUNSCR =        0    unscreen: 0-lin 1-nonlin 2-no                                               
   RPACOR =    0.000    partial core radius                                                         
   POMASS =    9.013; ZVAL   =    4.000    mass and valenz                                          
   RCORE  =    1.800    outmost cutoff radius                                                       
   RWIGS  =    1.880; RWIGS  =    0.995    wigner-seitz radius (au A)                               
   ENMAX  =  308.768; ENMIN  =  231.576 eV                                                          
   ICORE  =        2    local potential                                                             
   LCOR   =        T    correct aug charges                                                         
   LPAW   =        T    paw PP                                                                      
   EAUG   =  780.944                                                                                
   RMAX   =    1.838    core radius for proj-oper                                                   
   RAUG   =    1.300    factor for augmentation sphere                                              
   RDEP   =    1.879    radius for radial grids                                                     
   RDEPT  =    1.200    core radius for aug-charge                                                  
                                                                                                    
   Atomic configuration                                                                             
    5 entries                                                                                       
     n  l   j            E        occ.                                                              
     1  0  0.50      -106.2287   2.0000                                                             
     1  0  0.50      -107.5894   0.0000                                                             
     2  0  0.50        -5.6162   1.9900                                                             
     2  1  0.50        -2.0244   0.0100                                                             
     3  2  1.50        -1.3606   0.0000                                                             
   Description                                                                                      
     l       E           TYP  RCUT    TYP  RCUT                                                     
     0   -106.2286628     23  1.500                                                                 
     0   -107.5894297     23  1.500                                                                 
     0     -5.6161740     23  1.500                                                                 
     1     -2.0243506     23  1.800                                                                 
     1     10.7523704     23  1.800                                                                 
     2     -1.3605826     15  1.800                                                                 
  local pseudopotential read in
  kinetic energy density of atom read in
  atomic valenz-charges read in
  non local Contribution for L=            0  read in
    real space projection operators read in
  non local Contribution for L=            0  read in
    real space projection operators read in
  non local Contribution for L=            0  read in
    real space projection operators read in
  non local Contribution for L=            1  read in
    real space projection operators read in
  non local Contribution for L=            1  read in
    real space projection operators read in
    PAW grid and wavefunctions read in
 
   number of l-projection  operators is LMAX  =            5
   number of lm-projection operators is LMMAX =            9
 
 POTCAR:    PAW_PBE P 06Sep2000                   
   SHA256 =  df60c54a93efe35c9e85ae94c010c75e9f6960a95d5595d7cdba4096d109af88 P/POTCAR              
   COPYR  = (c) Copyright 06Sep2000 Georg Kresse                                                    
   COPYR  = This file is part of the software VASP. Any use, copying, and all other rights are regul
   COPYR  = If you do not have a valid VASP license, you may not use, copy or distribute this file. 
   VRHFIN =P : s2p3                                                                                 
   LEXCH  = PE                                                                                      
   EATOM  =   176.0430 eV,   12.9388 Ry                                                             
                                                                                                    
   TITEL  = PAW_PBE P 06Sep2000                                                                     
   LULTRA =        F    use ultrasoft PP ?                                                          
   IUNSCR =        1    unscreen: 0-lin 1-nonlin 2-no                                               
   RPACOR =    1.500    partial core radius                                                         
   POMASS =   30.974; ZVAL   =    5.000    mass and valenz                                          
   RCORE  =    1.900    outmost cutoff radius                                                       
   RWIGS  =    2.330; RWIGS  =    1.233    wigner-seitz radius (au A)                               
   ENMAX  =  255.040; ENMIN  =  191.280 eV                                                          
   ICORE  =        2    local potential                                                             
   LCOR   =        T    correct aug charges                                                         
   LPAW   =        T    paw PP                                                                      
   EAUG   =  342.924                                                                                
   DEXC   =    0.000                                                                                
   RMAX   =    1.935    core radius for proj-oper                                                   
   RAUG   =    1.300    factor for augmentation sphere                                              
   RDEP   =    1.931    radius for radial grids                                                     
   RDEPT  =    1.794    core radius for aug-charge                                                  
                                                                                                    
   Atomic configuration                                                                             
    6 entries                                                                                       
     n  l   j            E        occ.                                                              
     1  0  0.50     -2084.0982   2.0000                                                             
     2  0  0.50      -173.9859   2.0000                                                             
     2  1  1.50      -124.4865   6.0000                                                             
     3  0  0.50       -13.9692   2.0000                                                             
     3  1  0.50        -5.5067   3.0000                                                             
     3  2  1.50        -5.4423   0.0000                                                             
   Description                                                                                      
     l       E           TYP  RCUT    TYP  RCUT                                                     
     0    -13.9691527     23  1.900                                                                 
     0    -11.7794650     23  1.900                                                                 
     1     -5.5066937     23  1.900                                                                 
     1     -0.2556953     23  1.900                                                                 
     2     -5.4423304     23  1.900                                                                 
  local pseudopotential read in
  partial core-charges read in
  partial kinetic energy density read in
  atomic valenz-charges read in
  non local Contribution for L=            0  read in
    real space projection operators read in
  non local Contribution for L=            0  read in
    real space projection operators read in
  non local Contribution for L=            1  read in
    real space projection operators read in
  non local Contribution for L=            1  read in
    real space projection operators read in
    PAW grid and wavefunctions read in
 
   number of l-projection  operators is LMAX  =            4
   number of lm-projection operators is LMMAX =            8
 
  PAW_PBE Rb_sv 06Sep2000               :
 energy of atom  1       EATOM= -662.5034
 kinetic energy error for atom=    0.0021 (will be added to EATOM!!)
  PAW_PBE Be_sv 06Sep2000               :
 energy of atom  2       EATOM= -398.1457
 kinetic energy error for atom=    0.0061 (will be added to EATOM!!)
  PAW_PBE P 06Sep2000                   :
 energy of atom  3       EATOM= -176.0430
 kinetic energy error for atom=    0.0023 (will be added to EATOM!!)
 
 
 POSCAR: Be4P3Rb.cif
  positions in direct lattice
  velocities in cartesian coordinates
 exchange correlation table for  LEXCH =        8
   RHO(1)=    0.500       N(1)  =     2000
   RHO(2)=  100.500       N(2)  =     4000
 


--------------------------------------------------------------------------------------------------------


 ion  position               nearest neighbor table
   1  0.000  0.000  0.500-   7 3.48   8 3.48   7 3.48   8 3.48   7 3.48   8 3.48   7 3.48   8 3.48
                             4 3.94   5 3.94   4 3.94   5 3.94   2 3.94   3 3.94   2 3.94   3 3.94
   2  0.000  0.500  0.143-   7 2.16   7 2.16   6 2.30   6 2.30   1 3.94   1 3.94
   3  0.000  0.500  0.857-   8 2.16   8 2.16   6 2.30   6 2.30   1 3.94   1 3.94
   4  0.500  0.000  0.857-   8 2.16   8 2.16   6 2.30   6 2.30   1 3.94   1 3.94
   5  0.500  0.000  0.143-   7 2.16   7 2.16   6 2.30   6 2.30   1 3.94   1 3.94
   6  0.000  0.000  0.000-   2 2.30   3 2.30   4 2.30   5 2.30   2 2.30   3 2.30   4 2.30   5 2.30

   7  0.500  0.500  0.261-   2 2.16   5 2.16   5 2.16   2 2.16   1 3.48   1 3.48   1 3.48   1 3.48

   8  0.500  0.500  0.739-   3 2.16   4 2.16   4 2.16   3 2.16   1 3.48   1 3.48   1 3.48   1 3.48

 
  LATTYP: Found a simple tetragonal cell.
 ALAT       =     3.6444689888
 C/A-ratio  =     2.6845662960
  
  Lattice vectors:
  
 A1 = (   3.6444689888,   0.0000000000,  -0.0000000000)
 A2 = (   0.0000000000,   3.6444689888,   0.0000000000)
 A3 = (   0.0000000000,   0.0000000000,   9.7838186140)


Analysis of symmetry for initial positions (statically):
=====================================================================
 Subroutine PRICEL returns:
 Original cell was already a primitive cell.
 

 Routine SETGRP: Setting up the symmetry group for a 
 simple tetragonal supercell.


 Subroutine GETGRP returns: Found 16 space group operations
 (whereof 16 operations were pure point group operations)
 out of a pool of 16 trial point group operations.


The static configuration has the point symmetry D_4h.


Analysis of symmetry for dynamics (positions and initial velocities):
=====================================================================
 Subroutine PRICEL returns:
 Original cell was already a primitive cell.
 

 Routine SETGRP: Setting up the symmetry group for a 
 simple tetragonal supercell.


 Subroutine GETGRP returns: Found 16 space group operations
 (whereof 16 operations were pure point group operations)
 out of a pool of 16 trial point group operations.


The dynamic configuration has the point symmetry D_4h.


 Subroutine INISYM returns: Found 16 space group operations
 (whereof 16 operations are pure point group operations),
 and found     1 'primitive' translations


----------------------------------------------------------------------------------------

                                     Primitive cell                                     

  volume of cell :     129.9502

  direct lattice vectors                    reciprocal lattice vectors
     3.644468989  0.000000000 -0.000000000     0.274388396  0.000000000  0.000000000
     0.000000000  3.644468989  0.000000000    -0.000000000  0.274388396  0.000000000
     0.000000000  0.000000000  9.783818614     0.000000000 -0.000000000  0.102209581

  length of vectors
     3.644468989  3.644468989  9.783818614     0.274388396  0.274388396  0.102209581

  position of ions in fractional coordinates (direct lattice)
     0.000000000  0.000000000  0.500000000
     0.000000000  0.500000000  0.142971773
     0.000000000  0.500000000  0.857028227
     0.500000000  0.000000000  0.857028227
     0.500000000  0.000000000  0.142971773
     0.000000000  0.000000000  0.000000000
     0.500000000  0.500000000  0.260602315
     0.500000000  0.500000000  0.739397685

  ion indices of the primitive-cell ions
   primitive index   ion index
                 1           1
                 2           2
                 3           3
                 4           4
                 5           5
                 6           6
                 7           7
                 8           8

----------------------------------------------------------------------------------------

 
 
 KPOINTS: Auto                                    

Automatic generation of k-mesh.
 Grid dimensions read from file:
 generate k-points for:    7    7    3

 Generating k-lattice:

  Cartesian coordinates                     Fractional coordinates (reciprocal lattice)
     0.039198342  0.000000000  0.000000000     0.142857143  0.000000000  0.000000000
    -0.000000000  0.039198342  0.000000000     0.000000000  0.142857143  0.000000000
     0.000000000 -0.000000000  0.034069860     0.000000000  0.000000000  0.333333333

  Length of vectors
     0.039198342  0.039198342  0.034069860

  Shift w.r.t. Gamma in fractional coordinates (k-lattice)
     0.000000000  0.000000000  0.000000000

 
 Subroutine IBZKPT returns following result:
 ===========================================
 
 Found     20 irreducible k-points:
 
 Following reciprocal coordinates:
            Coordinates               Weight
  0.000000  0.000000  0.000000      1.000000
  0.142857  0.000000  0.000000      4.000000
  0.285714  0.000000  0.000000      4.000000
  0.428571  0.000000  0.000000      4.000000
  0.142857  0.142857  0.000000      4.000000
  0.285714  0.142857  0.000000      8.000000
  0.428571  0.142857  0.000000      8.000000
  0.285714  0.285714  0.000000      4.000000
  0.428571  0.285714  0.000000      8.000000
  0.428571  0.428571  0.000000      4.000000
  0.000000  0.000000  0.333333      2.000000
  0.142857  0.000000  0.333333      8.000000
  0.285714  0.000000  0.333333      8.000000
  0.428571  0.000000  0.333333      8.000000
  0.142857  0.142857  0.333333      8.000000
  0.285714  0.142857  0.333333     16.000000
  0.428571  0.142857  0.333333     16.000000
  0.285714  0.285714  0.333333      8.000000
  0.428571  0.285714  0.333333     16.000000
  0.428571  0.428571  0.333333      8.000000
 
 Following cartesian coordinates:
            Coordinates               Weight
  0.000000  0.000000  0.000000      1.000000
  0.039198  0.000000  0.000000      4.000000
  0.078397  0.000000  0.000000      4.000000
  0.117595  0.000000  0.000000      4.000000
  0.039198  0.039198  0.000000      4.000000
  0.078397  0.039198  0.000000      8.000000
  0.117595  0.039198  0.000000      8.000000
  0.078397  0.078397  0.000000      4.000000
  0.117595  0.078397  0.000000      8.000000
  0.117595  0.117595  0.000000      4.000000
  0.000000  0.000000  0.034070      2.000000
  0.039198  0.000000  0.034070      8.000000
  0.078397  0.000000  0.034070      8.000000
  0.117595  0.000000  0.034070      8.000000
  0.039198  0.039198  0.034070      8.000000
  0.078397  0.039198  0.034070     16.000000
  0.117595  0.039198  0.034070     16.000000
  0.078397  0.078397  0.034070      8.000000
  0.117595  0.078397  0.034070     16.000000
  0.117595  0.117595  0.034070      8.000000
 
 
 Subroutine IBZKPT_HF returns following result:
 ==============================================
 
 Found    147 k-points in 1st BZ
 the following    147 k-points will be used (e.g. in the exchange kernel)
 Following reciprocal coordinates:   # in IRBZ
  0.000000  0.000000  0.000000    0.00680272   1 t-inv F
  0.142857  0.000000  0.000000    0.00680272   2 t-inv F
  0.285714  0.000000  0.000000    0.00680272   3 t-inv F
  0.428571  0.000000  0.000000    0.00680272   4 t-inv F
  0.142857  0.142857  0.000000    0.00680272   5 t-inv F
  0.285714  0.142857  0.000000    0.00680272   6 t-inv F
  0.428571  0.142857  0.000000    0.00680272   7 t-inv F
  0.285714  0.285714  0.000000    0.00680272   8 t-inv F
  0.428571  0.285714  0.000000    0.00680272   9 t-inv F
  0.428571  0.428571  0.000000    0.00680272  10 t-inv F
  0.000000  0.000000  0.333333    0.00680272  11 t-inv F
  0.142857  0.000000  0.333333    0.00680272  12 t-inv F
  0.285714  0.000000  0.333333    0.00680272  13 t-inv F
  0.428571  0.000000  0.333333    0.00680272  14 t-inv F
  0.142857  0.142857  0.333333    0.00680272  15 t-inv F
  0.285714  0.142857  0.333333    0.00680272  16 t-inv F
  0.428571  0.142857  0.333333    0.00680272  17 t-inv F
  0.285714  0.285714  0.333333    0.00680272  18 t-inv F
  0.428571  0.285714  0.333333    0.00680272  19 t-inv F
  0.428571  0.428571  0.333333    0.00680272  20 t-inv F
 -0.142857 -0.000000 -0.000000    0.00680272   2 t-inv F
 -0.000000  0.142857  0.000000    0.00680272   2 t-inv F
  0.000000 -0.142857 -0.000000    0.00680272   2 t-inv F
 -0.285714 -0.000000 -0.000000    0.00680272   3 t-inv F
 -0.000000  0.285714  0.000000    0.00680272   3 t-inv F
  0.000000 -0.285714 -0.000000    0.00680272   3 t-inv F
 -0.428571 -0.000000 -0.000000    0.00680272   4 t-inv F
 -0.000000  0.428571  0.000000    0.00680272   4 t-inv F
  0.000000 -0.428571 -0.000000    0.00680272   4 t-inv F
 -0.142857 -0.142857 -0.000000    0.00680272   5 t-inv F
 -0.142857  0.142857  0.000000    0.00680272   5 t-inv F
  0.142857 -0.142857 -0.000000    0.00680272   5 t-inv F
 -0.285714 -0.142857 -0.000000    0.00680272   6 t-inv F
 -0.142857  0.285714  0.000000    0.00680272   6 t-inv F
  0.142857 -0.285714 -0.000000    0.00680272   6 t-inv F
 -0.285714  0.142857 -0.000000    0.00680272   6 t-inv F
  0.285714 -0.142857  0.000000    0.00680272   6 t-inv F
  0.142857  0.285714 -0.000000    0.00680272   6 t-inv F
 -0.142857 -0.285714  0.000000    0.00680272   6 t-inv F
 -0.428571 -0.142857 -0.000000    0.00680272   7 t-inv F
 -0.142857  0.428571  0.000000    0.00680272   7 t-inv F
  0.142857 -0.428571 -0.000000    0.00680272   7 t-inv F
 -0.428571  0.142857 -0.000000    0.00680272   7 t-inv F
  0.428571 -0.142857  0.000000    0.00680272   7 t-inv F
  0.142857  0.428571 -0.000000    0.00680272   7 t-inv F
 -0.142857 -0.428571  0.000000    0.00680272   7 t-inv F
 -0.285714 -0.285714 -0.000000    0.00680272   8 t-inv F
 -0.285714  0.285714  0.000000    0.00680272   8 t-inv F
  0.285714 -0.285714 -0.000000    0.00680272   8 t-inv F
 -0.428571 -0.285714 -0.000000    0.00680272   9 t-inv F
 -0.285714  0.428571  0.000000    0.00680272   9 t-inv F
  0.285714 -0.428571 -0.000000    0.00680272   9 t-inv F
 -0.428571  0.285714 -0.000000    0.00680272   9 t-inv F
  0.428571 -0.285714  0.000000    0.00680272   9 t-inv F
  0.285714  0.428571 -0.000000    0.00680272   9 t-inv F
 -0.285714 -0.428571  0.000000    0.00680272   9 t-inv F
 -0.428571 -0.428571 -0.000000    0.00680272  10 t-inv F
 -0.428571  0.428571  0.000000    0.00680272  10 t-inv F
  0.428571 -0.428571 -0.000000    0.00680272  10 t-inv F
 -0.000000 -0.000000 -0.333333    0.00680272  11 t-inv F
 -0.142857 -0.000000 -0.333333    0.00680272  12 t-inv F
 -0.000000  0.142857  0.333333    0.00680272  12 t-inv F
  0.000000 -0.142857 -0.333333    0.00680272  12 t-inv F
 -0.142857 -0.000000  0.333333    0.00680272  12 t-inv F
  0.142857  0.000000 -0.333333    0.00680272  12 t-inv F
  0.000000 -0.142857  0.333333    0.00680272  12 t-inv F
 -0.000000  0.142857 -0.333333    0.00680272  12 t-inv F
 -0.285714 -0.000000 -0.333333    0.00680272  13 t-inv F
 -0.000000  0.285714  0.333333    0.00680272  13 t-inv F
  0.000000 -0.285714 -0.333333    0.00680272  13 t-inv F
 -0.285714 -0.000000  0.333333    0.00680272  13 t-inv F
  0.285714  0.000000 -0.333333    0.00680272  13 t-inv F
  0.000000 -0.285714  0.333333    0.00680272  13 t-inv F
 -0.000000  0.285714 -0.333333    0.00680272  13 t-inv F
 -0.428571 -0.000000 -0.333333    0.00680272  14 t-inv F
 -0.000000  0.428571  0.333333    0.00680272  14 t-inv F
  0.000000 -0.428571 -0.333333    0.00680272  14 t-inv F
 -0.428571 -0.000000  0.333333    0.00680272  14 t-inv F
  0.428571  0.000000 -0.333333    0.00680272  14 t-inv F
  0.000000 -0.428571  0.333333    0.00680272  14 t-inv F
 -0.000000  0.428571 -0.333333    0.00680272  14 t-inv F
 -0.142857 -0.142857 -0.333333    0.00680272  15 t-inv F
 -0.142857  0.142857  0.333333    0.00680272  15 t-inv F
  0.142857 -0.142857 -0.333333    0.00680272  15 t-inv F
 -0.142857 -0.142857  0.333333    0.00680272  15 t-inv F
  0.142857  0.142857 -0.333333    0.00680272  15 t-inv F
  0.142857 -0.142857  0.333333    0.00680272  15 t-inv F
 -0.142857  0.142857 -0.333333    0.00680272  15 t-inv F
 -0.285714 -0.142857 -0.333333    0.00680272  16 t-inv F
 -0.142857  0.285714  0.333333    0.00680272  16 t-inv F
  0.142857 -0.285714 -0.333333    0.00680272  16 t-inv F
 -0.285714 -0.142857  0.333333    0.00680272  16 t-inv F
  0.285714  0.142857 -0.333333    0.00680272  16 t-inv F
  0.142857 -0.285714  0.333333    0.00680272  16 t-inv F
 -0.142857  0.285714 -0.333333    0.00680272  16 t-inv F
 -0.285714  0.142857 -0.333333    0.00680272  16 t-inv F
  0.285714 -0.142857  0.333333    0.00680272  16 t-inv F
  0.142857  0.285714 -0.333333    0.00680272  16 t-inv F
 -0.142857 -0.285714  0.333333    0.00680272  16 t-inv F
  0.285714 -0.142857 -0.333333    0.00680272  16 t-inv F
 -0.285714  0.142857  0.333333    0.00680272  16 t-inv F
 -0.142857 -0.285714 -0.333333    0.00680272  16 t-inv F
  0.142857  0.285714  0.333333    0.00680272  16 t-inv F
 -0.428571 -0.142857 -0.333333    0.00680272  17 t-inv F
 -0.142857  0.428571  0.333333    0.00680272  17 t-inv F
  0.142857 -0.428571 -0.333333    0.00680272  17 t-inv F
 -0.428571 -0.142857  0.333333    0.00680272  17 t-inv F
  0.428571  0.142857 -0.333333    0.00680272  17 t-inv F
  0.142857 -0.428571  0.333333    0.00680272  17 t-inv F
 -0.142857  0.428571 -0.333333    0.00680272  17 t-inv F
 -0.428571  0.142857 -0.333333    0.00680272  17 t-inv F
  0.428571 -0.142857  0.333333    0.00680272  17 t-inv F
  0.142857  0.428571 -0.333333    0.00680272  17 t-inv F
 -0.142857 -0.428571  0.333333    0.00680272  17 t-inv F
  0.428571 -0.142857 -0.333333    0.00680272  17 t-inv F
 -0.428571  0.142857  0.333333    0.00680272  17 t-inv F
 -0.142857 -0.428571 -0.333333    0.00680272  17 t-inv F
  0.142857  0.428571  0.333333    0.00680272  17 t-inv F
 -0.285714 -0.285714 -0.333333    0.00680272  18 t-inv F
 -0.285714  0.285714  0.333333    0.00680272  18 t-inv F
  0.285714 -0.285714 -0.333333    0.00680272  18 t-inv F
 -0.285714 -0.285714  0.333333    0.00680272  18 t-inv F
  0.285714  0.285714 -0.333333    0.00680272  18 t-inv F
  0.285714 -0.285714  0.333333    0.00680272  18 t-inv F
 -0.285714  0.285714 -0.333333    0.00680272  18 t-inv F
 -0.428571 -0.285714 -0.333333    0.00680272  19 t-inv F
 -0.285714  0.428571  0.333333    0.00680272  19 t-inv F
  0.285714 -0.428571 -0.333333    0.00680272  19 t-inv F
 -0.428571 -0.285714  0.333333    0.00680272  19 t-inv F
  0.428571  0.285714 -0.333333    0.00680272  19 t-inv F
  0.285714 -0.428571  0.333333    0.00680272  19 t-inv F
 -0.285714  0.428571 -0.333333    0.00680272  19 t-inv F
 -0.428571  0.285714 -0.333333    0.00680272  19 t-inv F
  0.428571 -0.285714  0.333333    0.00680272  19 t-inv F
  0.285714  0.428571 -0.333333    0.00680272  19 t-inv F
 -0.285714 -0.428571  0.333333    0.00680272  19 t-inv F
  0.428571 -0.285714 -0.333333    0.00680272  19 t-inv F
 -0.428571  0.285714  0.333333    0.00680272  19 t-inv F
 -0.285714 -0.428571 -0.333333    0.00680272  19 t-inv F
  0.285714  0.428571  0.333333    0.00680272  19 t-inv F
 -0.428571 -0.428571 -0.333333    0.00680272  20 t-inv F
 -0.428571  0.428571  0.333333    0.00680272  20 t-inv F
  0.428571 -0.428571 -0.333333    0.00680272  20 t-inv F
 -0.428571 -0.428571  0.333333    0.00680272  20 t-inv F
  0.428571  0.428571 -0.333333    0.00680272  20 t-inv F
  0.428571 -0.428571  0.333333    0.00680272  20 t-inv F
 -0.428571  0.428571 -0.333333    0.00680272  20 t-inv F


--------------------------------------------------------------------------------------------------------




 Dimension of arrays:
   k-points           NKPTS =     20   k-points in BZ     NKDIM =    147   number of bands    NBANDS=     48
   number of dos      NEDOS =    301   number of ions     NIONS =      8
   non local maximal  LDIM  =      5   non local SUM 2l+1 LMDIM =     13
   total plane-waves  NPLWV =  36864
   max r-space proj   IRMAX =      1   max aug-charges    IRDMAX=  13589
   dimension x,y,z NGX =    24 NGY =   24 NGZ =   64
   dimension x,y,z NGXF=    48 NGYF=   48 NGZF=  128
   support grid    NGXF=    48 NGYF=   48 NGZF=  128
   ions per type =               1   4   3
   NGX,Y,Z   is equivalent  to a cutoff of  10.95, 10.95, 10.87 a.u.
   NGXF,Y,Z  is equivalent  to a cutoff of  21.90, 21.90, 21.75 a.u.

 SYSTEM =  Be4P3Rb                                 
 POSCAR =  Be4P3Rb.cif                             

 Startparameter for this run:
   NWRITE =      2    write-flag & timer
   PREC   = accura    normal or accurate (medium, high low for compatibility)
   ISTART =      0    job   : 0-new  1-cont  2-samecut
   ICHARG =      2    charge: 1-file 2-atom 10-const
   ISPIN  =      1    spin polarized calculation?
   LNONCOLLINEAR =      F non collinear calculations
   LSORBIT =      F    spin-orbit coupling
   INIWAV =      1    electr: 0-lowe 1-rand  2-diag
   LASPH  =      F    aspherical Exc in radial PAW
 Electronic Relaxation 1
   ENCUT  =  400.0 eV  29.40 Ry    5.42 a.u.   5.94  5.94 15.95*2*pi/ulx,y,z
   ENINI  =  400.0     initial cutoff
   ENAUG  =  780.9 eV  augmentation charge cutoff
   NELM   =     60;   NELMIN=  2; NELMDL= -5     # of ELM steps 
   EDIFF  = 0.1E-04   stopping-criterion for ELM
   LREAL  =      F    real-space projection
   NLSPLINE    = F    spline interpolate recip. space projectors
   LCOMPAT=      F    compatible to vasp.4.4
   GGA_COMPAT  = T    GGA compatible to vasp.4.4-vasp.4.6
   LMAXPAW     = -100 max onsite density
   LMAXMIX     =    2 max onsite mixed and CHGCAR
   VOSKOWN=      0    Vosko Wilk Nusair interpolation
   ROPT   =    0.00000   0.00000   0.00000
 Ionic relaxation
   EDIFFG = -.1E-01   stopping-criterion for IOM
   NSW    =   1000    number of steps for IOM
   NBLOCK =      1;   KBLOCK =   1000    inner block; outer block 
   IBRION =      2    ionic relax: 0-MD 1-quasi-New 2-CG
   NFREE  =      1    steps in history (QN), initial steepest desc. (CG)
   ISIF   =      3    stress and relaxation
   IWAVPR =     11    prediction:  0-non 1-charg 2-wave 3-comb
   ISYM   =      3    0-nonsym 1-usesym 2-fastsym
   LCORR  =      T    Harris-Foulkes like correction to forces

   POTIM  = 0.5000    time-step for ionic-motion
   TEIN   =    0.0    initial temperature
   TEBEG  =    0.0;   TEEND  =   0.0 temperature during run
   SMASS  =  -3.00    Nose mass-parameter (am)
   estimated Nose-frequenzy (Omega)   =  0.10E-29 period in steps = 0.13E+47 mass=  -0.304E-27a.u.
   SCALEE = 1.0000    scale energy and forces
   NPACO  =    256;   APACO  = 10.0  distance and # of slots for P.C.
   PSTRESS=    0.0 pullay stress

  Mass of Ions in am
   POMASS =  85.47  9.01 30.97
  Ionic Valenz
   ZVAL   =   9.00  4.00  5.00
  Atomic Wigner-Seitz radii
   RWIGS  =  -1.00 -1.00 -1.00
  virtual crystal weights 
   VCA    =   1.00  1.00  1.00
   NELECT =      40.0000    total number of electrons
   NUPDOWN=      -1.0000    fix difference up-down

 DOS related values:
   EMIN   =  10.00;   EMAX   =-10.00  energy-range for DOS
   EFERMI =   0.00
   ISMEAR =     0;   SIGMA  =   0.01  broadening in eV -4-tet -1-fermi 0-gaus

 Electronic relaxation 2 (details)
   IALGO  =     58    algorithm
   LDIAG  =      T    sub-space diagonalisation (order eigenvalues)
   LSUBROT=      F    optimize rotation matrix (better conditioning)
   TURBO    =      0    0=normal 1=particle mesh
   IRESTART =      0    0=no restart 2=restart with 2 vectors
   NREBOOT  =      0    no. of reboots
   NMIN     =      0    reboot dimension
   EREF     =   0.00    reference energy to select bands
   IMIX   =      4    mixing-type and parameters
     AMIX     =   0.40;   BMIX     =  1.00
     AMIX_MAG =   1.60;   BMIX_MAG =  1.00
     AMIN     =   0.10
     WC   =   100.;   INIMIX=   1;  MIXPRE=   1;  MAXMIX= -45

 Intra band minimization:
   WEIMIN = 0.0010     energy-eigenvalue tresh-hold
   EBREAK =  0.52E-07  absolut break condition
   DEPER  =   0.30     relativ break condition  

   TIME   =   0.40     timestep for ELM

  volume/ion in A,a.u.               =      16.24       109.62
  Fermi-wavevector in a.u.,A,eV,Ry     =   1.105357  2.088822 16.623787  1.221814
  Thomas-Fermi vector in A             =   2.241843
 
 Write flags
   LWAVE        =      F    write WAVECAR
   LDOWNSAMPLE  =      F    k-point downsampling of WAVECAR
   LCHARG       =      F    write CHGCAR
   LVTOT        =      F    write LOCPOT, total local potential
   LVHAR        =      F    write LOCPOT, Hartree potential only
   LELF         =      F    write electronic localiz. function (ELF)
   LORBIT       =      0    0 simple, 1 ext, 2 COOP (PROOUT), +10 PAW based schemes


 Dipole corrections
   LMONO  =      F    monopole corrections only (constant potential shift)
   LDIPOL =      F    correct potential (dipole corrections)
   IDIPOL =      0    1-x, 2-y, 3-z, 4-all directions 
   EPSILON=  1.0000000 bulk dielectric constant

 Exchange correlation treatment:
   GGA     =    PE    GGA type
   LEXCH   =     8    internal setting for exchange type
   LIBXC   =     F    Libxc                    
   VOSKOWN =     0    Vosko Wilk Nusair interpolation
   EXXOEP  =     0    0=HF, 1=EXX-LHF (local Hartree Fock) 2=EXX OEP
   LHFCALC =     T    Hartree Fock is set to
   LSYMGRAD=     F    symmetrize gradient (conserves proper symmetry)
   PRECFOCK=normal    Normal, Fast or Accurate (Low or Medium for compatibility)
   LRHFCALC=     F    long range Hartree Fock
   LRSCOR  =     F    long range correlation only (use DFT for short range part)
   LTHOMAS =     F    Thomas Fermi screening in HF
   LMODELHF=     F    short range full HF, long range fraction AEXX
   FOCKCORR=     1    mode to apply convergence corrections
   LFOCKACE=     T    use Adeptively-Compressed-Exchange operator
   ENCUT4O =  -1.0   cutoff for four orbital integrals eV
   LMAXFOCK=     4    L truncation for augmentation on plane wave grid
   LMAXFOCKAE=  -1    L truncation for all-electron charge restoration on plane wave grid
   NMAXFOCKAE=   1    number of basis functions for all-electron charge restoration
   LFOCKAEDFT=     F  apply the AE augmentation even for DFT
   NKREDX  =     1    reduce k-point grid by
   NKREDY  =     1    reduce k-point grid by
   NKREDZ  =     1    reduce k-point grid by
   SHIFTRED=     F    shift reduced grid of Gamma
   HFKIDENT=     F    idential grid for each k-point
   ODDONLY =     F    use only odd q-grid points
   EVENONLY=     F    use only even q-grid points
   HFALPHA =   -1.0000 decay constant for conv. correction
   MCALPHA =    0.0000 extent of test-charge in conv. correction in multipole expansion
   AEXX    =    0.2500 exact exchange contribution
   HFSCREEN=    0.2000 screening length (either q_TF or 0.3 A-1)
   HFSCREENC=   0.2000 screening length for correlation (either q_TF or 0.3 A-1)
   HFRCUT  =    0.0000 spherical cutoff for potential kernel
   ALDAX   =    0.7500 LDA exchange part
   AGGAX   =    0.7500 GGA exchange part
   ALDAC   =    1.0000 LDA correlation
   AGGAC   =    1.0000 GGA correlation
   ENCUTFOCK=  -1.0 apply spherical cutoff to Coloumb kernel
   NBANDSGWLOW=     1    first orbital included in HF term
   NBLOCK_FOCK=    64    blocking factor in FOCK_ACC

 Linear response parameters
   LEPSILON=     F    determine dielectric tensor
   LRPA    =     F    only Hartree local field effects (RPA)
   LNABLA  =     F    use nabla operator in PAW spheres
   LVEL    =     F    velocity operator in full k-point grid
   CSHIFT  =0.1000    complex shift for real part using Kramers Kronig
   OMEGAMAX=  -1.0    maximum frequency
   DEG_THRESHOLD= 0.2000000E-02 threshold for treating states as degnerate
   RTIME   =   -0.100 relaxation time in fs
  (WPLASMAI=    0.000 imaginary part of plasma frequency in eV, 0.658/RTIME)
   DFIELD  = 0.0000000 0.0000000 0.0000000 field for delta impulse in time
 
  Optional k-point grid parameters
   LKPOINTS_OPT  =     F    use optional k-point grid
   KPOINTS_OPT_MODE=     1    mode for optional k-point grid
 
 Orbital magnetization related:
   ORBITALMAG=     F  switch on orbital magnetization
   LCHIMAG   =     F  perturbation theory with respect to B field
   DQ        =  0.001000  dq finite difference perturbation B field
   LLRAUG    =     F  two centre corrections for induced B field



--------------------------------------------------------------------------------------------------------


 conjugate gradient relaxation of ions
 charge density and potential will be updated during run
 non-spin polarized calculation
 Conjugate gradient for all bands (Freysoldt, et al. PRB 79, 241103 (2009))
 preconditioned conjugated gradient                                        
 perform sub-space diagonalisation
    before iterative eigenvector-optimisation
 modified Broyden-mixing scheme, WC =      100.0
 initial mixing is a Kerker type mixing with AMIX =  0.4000 and BMIX =      1.0000
 Hartree-type preconditioning will be used
 using additional bands            28
 reciprocal scheme for non local part
 use partial core corrections
 no Harris-corrections to forces 
 use gradient corrections 
 use of overlap-Matrix (Vanderbilt PP)
 Gauss-broadening in eV      SIGMA  =   0.01


--------------------------------------------------------------------------------------------------------


  energy-cutoff  :      400.00
  volume of cell :      129.95
      direct lattice vectors                 reciprocal lattice vectors
     3.644468989  0.000000000 -0.000000000     0.274388396  0.000000000  0.000000000
     0.000000000  3.644468989  0.000000000    -0.000000000  0.274388396  0.000000000
     0.000000000  0.000000000  9.783818614     0.000000000 -0.000000000  0.102209581

  length of vectors
     3.644468989  3.644468989  9.783818614     0.274388396  0.274388396  0.102209581


 
 k-points in units of 2pi/SCALE and weight: Auto                                    
   0.00000000  0.00000000  0.00000000       0.007
   0.03919834  0.00000000  0.00000000       0.027
   0.07839668  0.00000000  0.00000000       0.027
   0.11759503  0.00000000  0.00000000       0.027
   0.03919834  0.03919834  0.00000000       0.027
   0.07839668  0.03919834  0.00000000       0.054
   0.11759503  0.03919834  0.00000000       0.054
   0.07839668  0.07839668  0.00000000       0.027
   0.11759503  0.07839668  0.00000000       0.054
   0.11759503  0.11759503  0.00000000       0.027
   0.00000000  0.00000000  0.03406986       0.014
   0.03919834  0.00000000  0.03406986       0.054
   0.07839668  0.00000000  0.03406986       0.054
   0.11759503  0.00000000  0.03406986       0.054
   0.03919834  0.03919834  0.03406986       0.054
   0.07839668  0.03919834  0.03406986       0.109
   0.11759503  0.03919834  0.03406986       0.109
   0.07839668  0.07839668  0.03406986       0.054
   0.11759503  0.07839668  0.03406986       0.109
   0.11759503  0.11759503  0.03406986       0.054
 
 k-points in reciprocal lattice and weights: Auto                                    
   0.00000000  0.00000000  0.00000000       0.007
   0.14285714  0.00000000  0.00000000       0.027
   0.28571429  0.00000000  0.00000000       0.027
   0.42857143  0.00000000  0.00000000       0.027
   0.14285714  0.14285714  0.00000000       0.027
   0.28571429  0.14285714  0.00000000       0.054
   0.42857143  0.14285714  0.00000000       0.054
   0.28571429  0.28571429  0.00000000       0.027
   0.42857143  0.28571429  0.00000000       0.054
   0.42857143  0.42857143  0.00000000       0.027
   0.00000000  0.00000000  0.33333333       0.014
   0.14285714  0.00000000  0.33333333       0.054
   0.28571429  0.00000000  0.33333333       0.054
   0.42857143  0.00000000  0.33333333       0.054
   0.14285714  0.14285714  0.33333333       0.054
   0.28571429  0.14285714  0.33333333       0.109
   0.42857143  0.14285714  0.33333333       0.109
   0.28571429  0.28571429  0.33333333       0.054
   0.42857143  0.28571429  0.33333333       0.109
   0.42857143  0.42857143  0.33333333       0.054
 
 position of ions in fractional coordinates (direct lattice) 
   0.00000000  0.00000000  0.50000000
   0.00000000  0.50000000  0.14297177
   0.00000000  0.50000000  0.85702823
   0.50000000  0.00000000  0.85702823
   0.50000000  0.00000000  0.14297177
   0.00000000  0.00000000  0.00000000
   0.50000000  0.50000000  0.26060231
   0.50000000  0.50000000  0.73939769
 
 position of ions in cartesian coordinates  (Angst):
   0.00000000  0.00000000  4.89190931
   0.00000000  1.82223449  1.39880989
   0.00000000  1.82223449  8.38500872
   1.82223449  0.00000000  8.38500872
   1.82223449  0.00000000  1.39880989
   0.00000000  0.00000000  0.00000000
   1.82223449  1.82223449  2.54968578
   1.82223449  1.82223449  7.23413284
 


--------------------------------------------------------------------------------------------------------


 k-point   1 :   0.0000 0.0000 0.0000  plane waves:    2347
 k-point   2 :   0.1429 0.0000 0.0000  plane waves:    2332
 k-point   3 :   0.2857 0.0000 0.0000  plane waves:    2352
 k-point   4 :   0.4286 0.0000 0.0000  plane waves:    2340
 k-point   5 :   0.1429 0.1429 0.0000  plane waves:    2349
 k-point   6 :   0.2857 0.1429 0.0000  plane waves:    2350
 k-point   7 :   0.4286 0.1429 0.0000  plane waves:    2364
 k-point   8 :   0.2857 0.2857 0.0000  plane waves:    2364
 k-point   9 :   0.4286 0.2857 0.0000  plane waves:    2387
 k-point  10 :   0.4286 0.4286 0.0000  plane waves:    2378
 k-point  11 :   0.0000 0.0000 0.3333  plane waves:    2360
 k-point  12 :   0.1429 0.0000 0.3333  plane waves:    2351
 k-point  13 :   0.2857 0.0000 0.3333  plane waves:    2347
 k-point  14 :   0.4286 0.0000 0.3333  plane waves:    2351
 k-point  15 :   0.1429 0.1429 0.3333  plane waves:    2360
 k-point  16 :   0.2857 0.1429 0.3333  plane waves:    2357
 k-point  17 :   0.4286 0.1429 0.3333  plane waves:    2362
 k-point  18 :   0.2857 0.2857 0.3333  plane waves:    2361
 k-point  19 :   0.4286 0.2857 0.3333  plane waves:    2373
 k-point  20 :   0.4286 0.4286 0.3333  plane waves:    2380

 maximum and minimum number of plane-waves per node :      2387     2332

 maximum number of plane-waves:      2387
 maximum index in each direction: 
   IXMAX=    5   IYMAX=    5   IZMAX=   15
   IXMIN=   -6   IYMIN=   -6   IZMIN=  -16


 serial   3D FFT for wavefunctions
 parallel 3D FFT for charge:
    minimum data exchange during FFTs selected (reduces bandwidth)


 FFT grid for exact exchange (Hartree Fock) 
  NGX = 18; NGY = 18; NGZ = 48

 
 Radii for the augmentation spheres in the non-local exchange
 for species   1 augmentation radius   1.387 (default was   1.110)
       energy cutoff for augmentation   1600.0
 for species   2 augmentation radius   0.794 (default was   0.635)
       energy cutoff for augmentation   1600.0
 for species   3 augmentation radius   1.198 (default was   0.959)
       energy cutoff for augmentation   1600.0
 Maximum index for augmentation-charges in exchange          1357
  SETUP_FOCK is finished

 total amount of memory used by VASP MPI-rank0    53859. kBytes
=======================================================================

   base      :      30000. kBytes
   nonl-proj :      15283. kBytes
   fftplans  :        570. kBytes
   grid      :       2279. kBytes
   one-center:         64. kBytes
   HF        :        101. kBytes
   nonlr-proj:        771. kBytes
   wavefun   :       4791. kBytes
 
     INWAV:  cpu time      0.0001: real time      0.0006
 Broyden mixing: mesh for mixing (old mesh)
   NGX = 11   NGY = 11   NGZ = 31
  (NGX  = 48   NGY  = 48   NGZ  =128)
  gives a total of   3751 points

 initial charge density was supplied:
 charge density of overlapping atoms calculated
 number of electron      40.0000000 magnetization 
 keeping initial charge density in first step


--------------------------------------------------------------------------------------------------------


 Maximum index for augmentation-charges           669 (set IRDMAX)


--------------------------------------------------------------------------------------------------------


 First call to EWALD:  gamma=   0.350
 Maximum number of real-space cells 4x 4x 2
 Maximum number of reciprocal cells 2x 2x 5

    FEWALD:  cpu time      0.0007: real time      0.0007


--------------------------------------- Iteration      1(   1)  ---------------------------------------


    POTLOK:  cpu time      0.8787: real time      1.1304
    SETDIJ:  cpu time      0.0063: real time      0.0063
    TRIAL :  cpu time      2.0100: real time      1.3963
    CORREC:  cpu time      0.0005: real time      0.0005
    --------------------------------------------
      LOOP:  cpu time      2.9027: real time      2.5407

 eigenvalue-minimisations  :  1944
 total energy-change (2. order) :-0.8686242E+03  (-0.1945902E+04)
 number of electron      40.0000000 magnetization 
 augmentation part       40.0000000 magnetization 

 Free energy of the ion-electron system (eV)
  ---------------------------------------------------
  alpha Z        PSCENC =       109.49705624
  Ewald energy   TEWEN  =     -1572.65416475
  -Hartree energ DENC   =      -452.90696352
  -exchange      EXHF   =         0.00000000
  -V(xc)+E(xc)   XCENC  =       108.76794538
  PAW double counting   =      1464.19494518    -2619.65879499
  entropy T*S    EENTRO =        -0.00000000
  eigenvalues    EBANDS =      -684.23292639
  atomic energy  EATOM  =      2778.36867015
  ---------------------------------------------------
  free energy    TOTEN  =      -868.62423269 eV

  energy without entropy =     -868.62423269  energy(sigma->0) =     -868.62423269
  exchange ACFDT corr.  =         0.00000000  see jH, gK, PRB 81, 115126


--------------------------------------------------------------------------------------------------------




--------------------------------------- Iteration      1(   2)  ---------------------------------------


    TRIAL :  cpu time      1.4034: real time      0.9083
    CORREC:  cpu time      0.0003: real time      0.0003
    --------------------------------------------
      LOOP:  cpu time      1.4044: real time      0.9097

 eigenvalue-minimisations  :  1944
 total energy-change (2. order) :-0.2142406E+03  (-0.2037328E+03)
 number of electron      40.0000000 magnetization 
 augmentation part       40.0000000 magnetization 

 Free energy of the ion-electron system (eV)
  ---------------------------------------------------
  alpha Z        PSCENC =       109.49705624
  Ewald energy   TEWEN  =     -1572.65416475
  -Hartree energ DENC   =      -452.90696352
  -exchange      EXHF   =         0.00000000
  -V(xc)+E(xc)   XCENC  =       108.76794538
  PAW double counting   =      1464.19494518    -2619.65879499
  entropy T*S    EENTRO =        -0.00000000
  eigenvalues    EBANDS =      -898.47355501
  atomic energy  EATOM  =      2778.36867015
  ---------------------------------------------------
  free energy    TOTEN  =     -1082.86486131 eV

  energy without entropy =    -1082.86486131  energy(sigma->0) =    -1082.86486131
  exchange ACFDT corr.  =         0.00000000  see jH, gK, PRB 81, 115126


--------------------------------------------------------------------------------------------------------




--------------------------------------- Iteration      1(   3)  ---------------------------------------


    TRIAL :  cpu time      2.2547: real time      1.4921
    CORREC:  cpu time      0.0003: real time      0.0003
    --------------------------------------------
      LOOP:  cpu time      2.2555: real time      1.4933

 eigenvalue-minimisations  :  3552
 total energy-change (2. order) :-0.1535456E+02  (-0.1529803E+02)
 number of electron      40.0000000 magnetization 
 augmentation part       40.0000000 magnetization 

 Free energy of the ion-electron system (eV)
  ---------------------------------------------------
  alpha Z        PSCENC =       109.49705624
  Ewald energy   TEWEN  =     -1572.65416475
  -Hartree energ DENC   =      -452.90696352
  -exchange      EXHF   =         0.00000000
  -V(xc)+E(xc)   XCENC  =       108.76794538
  PAW double counting   =      1464.19494518    -2619.65879499
  entropy T*S    EENTRO =        -0.00000000
  eigenvalues    EBANDS =      -913.82811173
  atomic energy  EATOM  =      2778.36867015
  ---------------------------------------------------
  free energy    TOTEN  =     -1098.21941803 eV

  energy without entropy =    -1098.21941803  energy(sigma->0) =    -1098.21941803
  exchange ACFDT corr.  =         0.00000000  see jH, gK, PRB 81, 115126


--------------------------------------------------------------------------------------------------------




--------------------------------------- Iteration      1(   4)  ---------------------------------------


    TRIAL :  cpu time      1.5421: real time      1.0004
    CORREC:  cpu time      0.0003: real time      0.0003
    --------------------------------------------
      LOOP:  cpu time      1.5429: real time      1.0016

 eigenvalue-minimisations  :  2184
 total energy-change (2. order) :-0.3794659E+00  (-0.3794515E+00)
 number of electron      40.0000000 magnetization 
 augmentation part       40.0000000 magnetization 

 Free energy of the ion-electron system (eV)
  ---------------------------------------------------
  alpha Z        PSCENC =       109.49705624
  Ewald energy   TEWEN  =     -1572.65416475
  -Hartree energ DENC   =      -452.90696352
  -exchange      EXHF   =         0.00000000
  -V(xc)+E(xc)   XCENC  =       108.76794538
  PAW double counting   =      1464.19494518    -2619.65879499
  entropy T*S    EENTRO =        -0.00000000
  eigenvalues    EBANDS =      -914.20757764
  atomic energy  EATOM  =      2778.36867015
  ---------------------------------------------------
  free energy    TOTEN  =     -1098.59888394 eV

  energy without entropy =    -1098.59888394  energy(sigma->0) =    -1098.59888394
  exchange ACFDT corr.  =         0.00000000  see jH, gK, PRB 81, 115126


--------------------------------------------------------------------------------------------------------




--------------------------------------- Iteration      1(   5)  ---------------------------------------


    POTLOK:  cpu time      0.0473: real time      0.0353
    SETDIJ:  cpu time      0.0580: real time      0.0580
    TRIAL :  cpu time      6.3051: real time      4.9528
    CORREC:  cpu time      0.0003: real time      0.0003
    CHARGE:  cpu time      0.0879: real time      0.0878
    --------------------------------------------
      LOOP:  cpu time      6.4990: real time      5.1351

 eigenvalue-minimisations  :  2880
 total energy-change (2. order) : 0.1058159E+04  (-0.5490586E+00)
 number of electron      40.0000142 magnetization 
 augmentation part        4.9992995 magnetization 

 Free energy of the ion-electron system (eV)
  ---------------------------------------------------
  alpha Z        PSCENC =       109.49705624
  Ewald energy   TEWEN  =     -1572.65416475
  -Hartree energ DENC   =      -452.90696352
  -exchange      EXHF   =        99.07378979
  -V(xc)+E(xc)   XCENC  =        82.84157085
  PAW double counting   =      1486.82630755    -1593.21129494
  entropy T*S    EENTRO =        -0.00000000
  eigenvalues    EBANDS =      -978.27521711
  atomic energy  EATOM  =      2778.36867015
  ---------------------------------------------------
  free energy    TOTEN  =       -40.44024574 eV

  energy without entropy =      -40.44024574  energy(sigma->0) =      -40.44024574
  exchange ACFDT corr.  =         0.00000000  see jH, gK, PRB 81, 115126


--------------------------------------------------------------------------------------------------------




--------------------------------------- Iteration      1(   6)  ---------------------------------------


    POTLOK:  cpu time      0.0466: real time      0.0343
    SETDIJ:  cpu time      0.0577: real time      0.0577
    TRIAL :  cpu time      5.3985: real time      4.1609
    CORREC:  cpu time      5.2582: real time      4.1373
    CHARGE:  cpu time      0.0833: real time      0.0833
    --------------------------------------------
      LOOP:  cpu time     10.8455: real time      8.4749

 eigenvalue-minimisations  :     0
 total energy-change (2. order) : 0.2792656E+01  (-0.1225729E+01)
 number of electron      40.0000142 magnetization 
 augmentation part        5.1148756 magnetization 

 Free energy of the ion-electron system (eV)
  ---------------------------------------------------
  alpha Z        PSCENC =       109.49705624
  Ewald energy   TEWEN  =     -1572.65416475
  -Hartree energ DENC   =      -475.39000352
  -exchange      EXHF   =        98.56076683
  -V(xc)+E(xc)   XCENC  =        84.66700894
  PAW double counting   =      3750.14330399    -3853.65820949
  entropy T*S    EENTRO =        -0.00000000
  eigenvalues    EBANDS =      -957.18201772
  atomic energy  EATOM  =      2778.36867015
  ---------------------------------------------------
  free energy    TOTEN  =       -37.64758933 eV

  energy without entropy =      -37.64758933  energy(sigma->0) =      -37.64758933
  exchange ACFDT corr.  =         0.00000000  see jH, gK, PRB 81, 115126


--------------------------------------------------------------------------------------------------------




--------------------------------------- Iteration      1(   7)  ---------------------------------------


    POTLOK:  cpu time      0.0449: real time      0.0343
    SETDIJ:  cpu time      0.0550: real time      0.0549
    TRIAL :  cpu time      5.4824: real time      4.1979
    CORREC:  cpu time      4.4694: real time      4.3012
    CHARGE:  cpu time      0.0829: real time      0.0829
    --------------------------------------------
      LOOP:  cpu time     10.1351: real time      8.6725

 eigenvalue-minimisations  :     0
 total energy-change (2. order) :-0.1228285E+01  (-0.1098789E+00)
 number of electron      40.0000142 magnetization 
 augmentation part        5.1097863 magnetization 

 Free energy of the ion-electron system (eV)
  ---------------------------------------------------
  alpha Z        PSCENC =       109.49705624
  Ewald energy   TEWEN  =     -1572.65416475
  -Hartree energ DENC   =      -468.30575130
  -exchange      EXHF   =        97.91564276
  -V(xc)+E(xc)   XCENC  =        84.30334792
  PAW double counting   =      4265.14533890    -4368.60622459
  entropy T*S    EENTRO =        -0.00000000
  eigenvalues    EBANDS =      -964.53978919
  atomic energy  EATOM  =      2778.36867015
  ---------------------------------------------------
  free energy    TOTEN  =       -38.87587385 eV

  energy without entropy =      -38.87587385  energy(sigma->0) =      -38.87587385
  exchange ACFDT corr.  =         0.00000000  see jH, gK, PRB 81, 115126


--------------------------------------------------------------------------------------------------------




--------------------------------------- Iteration      1(   8)  ---------------------------------------


    POTLOK:  cpu time      0.0433: real time      0.0344
    SETDIJ:  cpu time      0.0548: real time      0.0548
    TRIAL :  cpu time      5.3491: real time      4.1280
    CORREC:  cpu time      4.4408: real time      3.9406
    CHARGE:  cpu time      0.0830: real time      0.0830
    --------------------------------------------
      LOOP:  cpu time      9.9718: real time      8.2419

 eigenvalue-minimisations  :     0
 total energy-change (2. order) :-0.1098747E+00  (-0.9486210E-01)
 number of electron      40.0000142 magnetization 
 augmentation part        5.1135994 magnetization 

 Free energy of the ion-electron system (eV)
  ---------------------------------------------------
  alpha Z        PSCENC =       109.49705624
  Ewald energy   TEWEN  =     -1572.65416475
  -Hartree energ DENC   =      -466.40478641
  -exchange      EXHF   =        97.76202138
  -V(xc)+E(xc)   XCENC  =        84.21266198
  PAW double counting   =      4266.07137591    -4369.06116906
  entropy T*S    EENTRO =        -0.00000000
  eigenvalues    EBANDS =      -966.77741405
  atomic energy  EATOM  =      2778.36867015
  ---------------------------------------------------
  free energy    TOTEN  =       -38.98574859 eV

  energy without entropy =      -38.98574859  energy(sigma->0) =      -38.98574859
  exchange ACFDT corr.  =         0.00000000  see jH, gK, PRB 81, 115126


--------------------------------------------------------------------------------------------------------




--------------------------------------- Iteration      1(   9)  ---------------------------------------


    POTLOK:  cpu time      0.0446: real time      0.0356
    SETDIJ:  cpu time      0.0548: real time      0.0548
    TRIAL :  cpu time      4.9973: real time      3.9545
    CORREC:  cpu time      4.4786: real time      3.9350
    CHARGE:  cpu time      0.0837: real time      0.0837
    --------------------------------------------
      LOOP:  cpu time      9.6602: real time      8.0652

 eigenvalue-minimisations  :     0
 total energy-change (2. order) :-0.9487700E-01  (-0.2683925E-01)
 number of electron      40.0000142 magnetization 
 augmentation part        5.1160060 magnetization 

 Free energy of the ion-electron system (eV)
  ---------------------------------------------------
  alpha Z        PSCENC =       109.49705624
  Ewald energy   TEWEN  =     -1572.65416475
  -Hartree energ DENC   =      -465.08916586
  -exchange      EXHF   =        97.64831278
  -V(xc)+E(xc)   XCENC  =        84.15914658
  PAW double counting   =      4204.00944906    -4307.13731181
  entropy T*S    EENTRO =        -0.00000000
  eigenvalues    EBANDS =      -967.88261798
  atomic energy  EATOM  =      2778.36867015
  ---------------------------------------------------
  free energy    TOTEN  =       -39.08062559 eV

  energy without entropy =      -39.08062559  energy(sigma->0) =      -39.08062559
  exchange ACFDT corr.  =         0.00000000  see jH, gK, PRB 81, 115126


--------------------------------------------------------------------------------------------------------




--------------------------------------- Iteration      1(  10)  ---------------------------------------


    POTLOK:  cpu time      0.0500: real time      0.0349
    SETDIJ:  cpu time      0.0548: real time      0.0548
    TRIAL :  cpu time      5.5250: real time      4.2177
    CORREC:  cpu time      4.8531: real time      3.9523
    CHARGE:  cpu time      0.0832: real time      0.0832
    --------------------------------------------
      LOOP:  cpu time     10.5669: real time      8.3441

 eigenvalue-minimisations  :     0
 total energy-change (2. order) :-0.2683064E-01  (-0.8716521E-02)
 number of electron      40.0000142 magnetization 
 augmentation part        5.1160423 magnetization 

 Free energy of the ion-electron system (eV)
  ---------------------------------------------------
  alpha Z        PSCENC =       109.49705624
  Ewald energy   TEWEN  =     -1572.65416475
  -Hartree energ DENC   =      -465.44542541
  -exchange      EXHF   =        97.63298937
  -V(xc)+E(xc)   XCENC  =        84.16058554
  PAW double counting   =      4160.11024236    -4263.36701895
  entropy T*S    EENTRO =        -0.00000000
  eigenvalues    EBANDS =      -967.41039078
  atomic energy  EATOM  =      2778.36867015
  ---------------------------------------------------
  free energy    TOTEN  =       -39.10745622 eV

  energy without entropy =      -39.10745622  energy(sigma->0) =      -39.10745622
  exchange ACFDT corr.  =         0.00000000  see jH, gK, PRB 81, 115126


--------------------------------------------------------------------------------------------------------




--------------------------------------- Iteration      1(  11)  ---------------------------------------


    POTLOK:  cpu time      0.0459: real time      0.0348
    SETDIJ:  cpu time      0.0548: real time      0.0547
    TRIAL :  cpu time      5.3992: real time      4.1546
    CORREC:  cpu time      4.8212: real time      3.9155
    CHARGE:  cpu time      0.0833: real time      0.0832
    --------------------------------------------
      LOOP:  cpu time     10.4052: real time      8.2442

 eigenvalue-minimisations  :     0
 total energy-change (2. order) :-0.8716570E-02  (-0.3206804E-02)
 number of electron      40.0000142 magnetization 
 augmentation part        5.1165657 magnetization 

 Free energy of the ion-electron system (eV)
  ---------------------------------------------------
  alpha Z        PSCENC =       109.49705624
  Ewald energy   TEWEN  =     -1572.65416475
  -Hartree energ DENC   =      -465.91982908
  -exchange      EXHF   =        97.63001011
  -V(xc)+E(xc)   XCENC  =        84.16377335
  PAW double counting   =      4129.46272818    -4232.71307559
  entropy T*S    EENTRO =        -0.00000000
  eigenvalues    EBANDS =      -966.95134141
  atomic energy  EATOM  =      2778.36867015
  ---------------------------------------------------
  free energy    TOTEN  =       -39.11617279 eV

  energy without entropy =      -39.11617279  energy(sigma->0) =      -39.11617279
  exchange ACFDT corr.  =         0.00000000  see jH, gK, PRB 81, 115126


--------------------------------------------------------------------------------------------------------




--------------------------------------- Iteration      1(  12)  ---------------------------------------


    POTLOK:  cpu time      0.0473: real time      0.0353
    SETDIJ:  cpu time      0.0550: real time      0.0549
    TRIAL :  cpu time      5.4052: real time      4.1590
    CORREC:  cpu time      4.4347: real time      3.9324
    CHARGE:  cpu time      0.0833: real time      0.0833
    --------------------------------------------
      LOOP:  cpu time     10.0261: real time      8.2662

 eigenvalue-minimisations  :     0
 total energy-change (2. order) :-0.3206921E-02  (-0.1346921E-02)
 number of electron      40.0000142 magnetization 
 augmentation part        5.1178436 magnetization 

 Free energy of the ion-electron system (eV)
  ---------------------------------------------------
  alpha Z        PSCENC =       109.49705624
  Ewald energy   TEWEN  =     -1572.65416475
  -Hartree energ DENC   =      -466.01306964
  -exchange      EXHF   =        97.62333564
  -V(xc)+E(xc)   XCENC  =        84.16021075
  PAW double counting   =      4107.91199266    -4211.14309499
  entropy T*S    EENTRO =        -0.00000000
  eigenvalues    EBANDS =      -966.87031577
  atomic energy  EATOM  =      2778.36867015
  ---------------------------------------------------
  free energy    TOTEN  =       -39.11937971 eV

  energy without entropy =      -39.11937971  energy(sigma->0) =      -39.11937971
  exchange ACFDT corr.  =         0.00000000  see jH, gK, PRB 81, 115126


--------------------------------------------------------------------------------------------------------




--------------------------------------- Iteration      1(  13)  ---------------------------------------


    POTLOK:  cpu time      0.0441: real time      0.0343
    SETDIJ:  cpu time      0.0547: real time      0.0547
    TRIAL :  cpu time      5.3817: real time      4.1447
    CORREC:  cpu time      4.8577: real time      3.9522
    CHARGE:  cpu time      0.0830: real time      0.0830
    --------------------------------------------
      LOOP:  cpu time     10.4220: real time      8.2701

 eigenvalue-minimisations  :     0
 total energy-change (2. order) :-0.1346888E-02  (-0.5129886E-03)
 number of electron      40.0000142 magnetization 
 augmentation part        5.1188631 magnetization 

 Free energy of the ion-electron system (eV)
  ---------------------------------------------------
  alpha Z        PSCENC =       109.49705624
  Ewald energy   TEWEN  =     -1572.65416475
  -Hartree energ DENC   =      -465.83668876
  -exchange      EXHF   =        97.61389036
  -V(xc)+E(xc)   XCENC  =        84.15280991
  PAW double counting   =      4093.31825380    -4196.55536545
  entropy T*S    EENTRO =        -0.00000000
  eigenvalues    EBANDS =      -967.02518812
  atomic energy  EATOM  =      2778.36867015
  ---------------------------------------------------
  free energy    TOTEN  =       -39.12072660 eV

  energy without entropy =      -39.12072660  energy(sigma->0) =      -39.12072660
  exchange ACFDT corr.  =         0.00000000  see jH, gK, PRB 81, 115126


--------------------------------------------------------------------------------------------------------




--------------------------------------- Iteration      1(  14)  ---------------------------------------


    POTLOK:  cpu time      0.0529: real time      0.0361
    SETDIJ:  cpu time      0.0546: real time      0.0546
    TRIAL :  cpu time      5.8227: real time      4.3804
    CORREC:  cpu time      4.4846: real time      4.3872
    CHARGE:  cpu time      0.0832: real time      0.0832
    --------------------------------------------
      LOOP:  cpu time     10.4987: real time      8.9427

 eigenvalue-minimisations  :     0
 total energy-change (2. order) :-0.5128701E-03  (-0.1744794E-03)
 number of electron      40.0000142 magnetization 
 augmentation part        5.1193054 magnetization 

 Free energy of the ion-electron system (eV)
  ---------------------------------------------------
  alpha Z        PSCENC =       109.49705624
  Ewald energy   TEWEN  =     -1572.65416475
  -Hartree energ DENC   =      -465.69535743
  -exchange      EXHF   =        97.60774007
  -V(xc)+E(xc)   XCENC  =        84.14776594
  PAW double counting   =      4086.09518835    -4189.34811222
  entropy T*S    EENTRO =        -0.00000000
  eigenvalues    EBANDS =      -967.14002583
  atomic energy  EATOM  =      2778.36867015
  ---------------------------------------------------
  free energy    TOTEN  =       -39.12123947 eV

  energy without entropy =      -39.12123947  energy(sigma->0) =      -39.12123947
  exchange ACFDT corr.  =         0.00000000  see jH, gK, PRB 81, 115126


--------------------------------------------------------------------------------------------------------




--------------------------------------- Iteration      1(  15)  ---------------------------------------


    POTLOK:  cpu time      0.0511: real time      0.0363
    SETDIJ:  cpu time      0.0547: real time      0.0546
    TRIAL :  cpu time      4.9955: real time      3.9473
    CORREC:  cpu time      4.4500: real time      3.9369
    CHARGE:  cpu time      0.0832: real time      0.0832
    --------------------------------------------
      LOOP:  cpu time      9.6351: real time      8.0597

 eigenvalue-minimisations  :     0
 total energy-change (2. order) :-0.1742699E-03  (-0.6696491E-04)
 number of electron      40.0000142 magnetization 
 augmentation part        5.1195962 magnetization 

 Free energy of the ion-electron system (eV)
  ---------------------------------------------------
  alpha Z        PSCENC =       109.49705624
  Ewald energy   TEWEN  =     -1572.65416475
  -Hartree energ DENC   =      -465.67895968
  -exchange      EXHF   =        97.60570017
  -V(xc)+E(xc)   XCENC  =        84.14621895
  PAW double counting   =      4084.01484191    -4187.27189245
  entropy T*S    EENTRO =        -0.00000000
  eigenvalues    EBANDS =      -967.14888430
  atomic energy  EATOM  =      2778.36867015
  ---------------------------------------------------
  free energy    TOTEN  =       -39.12141374 eV

  energy without entropy =      -39.12141374  energy(sigma->0) =      -39.12141374
  exchange ACFDT corr.  =         0.00000000  see jH, gK, PRB 81, 115126


--------------------------------------------------------------------------------------------------------




--------------------------------------- Iteration      1(  16)  ---------------------------------------


    POTLOK:  cpu time      0.0475: real time      0.0345
    SETDIJ:  cpu time      0.0554: real time      0.0554
    TRIAL :  cpu time      5.8246: real time      4.3603
    CORREC:  cpu time      4.8296: real time      3.9335
    CHARGE:  cpu time      0.0831: real time      0.0830
    --------------------------------------------
      LOOP:  cpu time     10.8408: real time      8.4679

 eigenvalue-minimisations  :     0
 total energy-change (2. order) :-0.6674841E-04  (-0.2499466E-04)
 number of electron      40.0000142 magnetization 
 augmentation part        5.1198109 magnetization 

 Free energy of the ion-electron system (eV)
  ---------------------------------------------------
  alpha Z        PSCENC =       109.49705624
  Ewald energy   TEWEN  =     -1572.65416475
  -Hartree energ DENC   =      -465.69514151
  -exchange      EXHF   =        97.60544352
  -V(xc)+E(xc)   XCENC  =        84.14611803
  PAW double counting   =      4084.10826422    -4187.36570006
  entropy T*S    EENTRO =        -0.00000000
  eigenvalues    EBANDS =      -967.13202633
  atomic energy  EATOM  =      2778.36867015
  ---------------------------------------------------
  free energy    TOTEN  =       -39.12148049 eV

  energy without entropy =      -39.12148049  energy(sigma->0) =      -39.12148049
  exchange ACFDT corr.  =         0.00000000  see jH, gK, PRB 81, 115126


--------------------------------------------------------------------------------------------------------




--------------------------------------- Iteration      1(  17)  ---------------------------------------


    POTLOK:  cpu time      0.0451: real time      0.0340
    SETDIJ:  cpu time      0.0549: real time      0.0549
    TRIAL :  cpu time      5.3801: real time      4.1658
    CORREC:  cpu time      4.8492: real time      4.1381
    CHARGE:  cpu time      0.0829: real time      0.0829
    --------------------------------------------
      LOOP:  cpu time     10.4129: real time      8.4768

 eigenvalue-minimisations  :     0
 total energy-change (2. order) :-0.2484310E-04  (-0.9436942E-05)
 number of electron      40.0000142 magnetization 
 augmentation part        5.1199404 magnetization 

 Free energy of the ion-electron system (eV)
  ---------------------------------------------------
  alpha Z        PSCENC =       109.49705624
  Ewald energy   TEWEN  =     -1572.65416475
  -Hartree energ DENC   =      -465.68981383
  -exchange      EXHF   =        97.60540945
  -V(xc)+E(xc)   XCENC  =        84.14609468
  PAW double counting   =      4084.84209239    -4188.09963739
  entropy T*S    EENTRO =        -0.00000000
  eigenvalues    EBANDS =      -967.13721228
  atomic energy  EATOM  =      2778.36867015
  ---------------------------------------------------
  free energy    TOTEN  =       -39.12150533 eV

  energy without entropy =      -39.12150533  energy(sigma->0) =      -39.12150533
  exchange ACFDT corr.  =         0.00000000  see jH, gK, PRB 81, 115126


--------------------------------------------------------------------------------------------------------




--------------------------------------- Iteration      1(  18)  ---------------------------------------


    POTLOK:  cpu time      0.0447: real time      0.0345
    SETDIJ:  cpu time      0.0548: real time      0.0548
    TRIAL :  cpu time      5.4364: real time      4.1813
    CORREC:  cpu time      4.8723: real time      3.9451
    EDDIAG:  cpu time      4.1009: real time      3.4610
    CHARGE:  cpu time      0.0830: real time      0.0830
    --------------------------------------------
      LOOP:  cpu time     14.5929: real time     11.7608

 eigenvalue-minimisations  :     0
 total energy-change (2. order) :-0.9357411E-05  (-0.3877599E-05)
 number of electron      40.0000142 magnetization 
 augmentation part        5.1199915 magnetization 

 Free energy of the ion-electron system (eV)
  ---------------------------------------------------
  alpha Z        PSCENC =       109.49705624
  Ewald energy   TEWEN  =     -1572.65416475
  -Hartree energ DENC   =      -465.67530685
  -exchange      EXHF   =        97.60527564
  -V(xc)+E(xc)   XCENC  =        84.14594688
  PAW double counting   =      4085.42456448    -4188.68256451
  entropy T*S    EENTRO =        -0.00000000
  eigenvalues    EBANDS =      -967.15101799
  atomic energy  EATOM  =      2778.36867015
  ---------------------------------------------------
  free energy    TOTEN  =       -39.12151469 eV

  energy without entropy =      -39.12151469  energy(sigma->0) =      -39.12151469
  exchange ACFDT corr.  =         0.00000000  see jH, gK, PRB 81, 115126


--------------------------------------------------------------------------------------------------------


  average scaling for gradient   0.9201


 average (electrostatic) potential at core
  the test charge radii are     1.1097  0.6353  0.9587
  (the norm of the test charge is              1.0000)
       1 -31.0910       2  -9.3193       3  -9.3193       4  -9.3193       5  -9.3193
       6 -80.9110       7 -79.7709       8 -79.7709
 
 
 
 E-fermi :   3.8171     XC(G=0):  -7.9218     alpha+bet :-10.8330

 Fermi energy:         3.8171223868

 k-point     1 :       0.0000    0.0000    0.0000
  band No.  band energies     occupation 
      1    -102.0114      2.00000
      2    -102.0111      2.00000
      3    -102.0065      2.00000
      4    -102.0060      2.00000
      5     -25.7064      2.00000
      6     -10.6279      2.00000
      7      -9.4364      2.00000
      8      -8.2608      2.00000
      9      -8.2608      2.00000
     10      -7.9237      2.00000
     11      -7.6320      2.00000
     12      -1.7435      2.00000
     13      -0.4041      2.00000
     14      -0.4041      2.00000
     15       0.6633      2.00000
[...]
  405        ggaall_grid                           0.021821                            1   3
  406        m_sumb_d                              0.000234                            5   3
  407        forhar                                0.000223                            1   3
  408          m_sumb_d                              0.000071                          1   4
  409        strehar                               0.000275                            1   3
  410          m_sumb_d                              0.000019                          1   4
  411        m_bcast_d                             0.000130                            2   3
  412      potlok                                0.034391                              1   2
  413        fft3d_mpi                             0.012694                           13   3
  414          fftbrc_mpi                            0.012298                         13   4
  415            fftbas_plan_mpi                       0.012292                       13   5
  416              map_forward                           0.005298                     14   6
  417                map_gather                            0.000134                    8   7
  418                m_alltoallv_z                         0.000170                    8   7
  419                map_scatter                           0.004918                    8   7
  420              map_backward                          0.006623                     12   6
  421                map_gather                            0.000104                    6   7
  422                m_alltoallv_z                         0.000132                    6   7
  423                map_scatter                           0.006314                    6   7
  424        ggaall_grid                           0.020391                            1   3
  425        m_sumb_d                              0.000194                            5   3
  426        pothar                                0.000165                            1   3
  427          m_sumb_d                              0.000100                          1   4
  428        m_bcast_d                             0.000013                            1   3
  429      potlok_metagga                        0.000000                              1   2
  430      set_dd_magatom                        0.000003                              1   2
  431      set_dd_paw                            0.053829                              1   2
  432        m_sumb_d                              0.053816                            7   3
  433      m_bcast_d                             0.000103                              2   2
 
 Flat profile
 ============
 
             routine name                   CPU           calls
 ---------------------------------------------------------------
 fock_fwd                               63.802748         560
 phaser_hf                              14.733593       85260
 fock_bck                                7.941844         560
 total_time                              7.043237           1
 redis_pw                                5.453548        6063
 acc_cufft_makeplan                      4.438076          55
 m_sumb_d                                4.286344        4768
 dllmm_trans_eccp_nl_fock_acc            4.236014       26460
 init_acc                                3.925069           1
 edwav                                   2.902828          26
 rpromu_hf_acc                           1.630126      111720
 redis_proj                              1.512939       10084
 eddav                                   1.502174           5
 m_alltoall_d                            1.412117       23807
 lapack                                  1.346200         721
 lincom                                  1.341960        1720
 fock_set_gfac_vkpt                      1.215795       82320
 batched_fft                             1.102706      170520
 depsum_sym                              1.080046          27
 m_alltoallv_z                           1.072375         499
 fock_all_dblbuf                         0.971143          28
 racc0mu_hf_acc                          0.955234       85260
 soft_charge_sym                         0.952124          27
 spher                                   0.754476         280
 fft3d                                   0.709213       95091
 ggaall_grid                             0.592122          30
 apply_gfac_exchange_mu_acc              0.549848       82320
 fock_force                              0.529236           1
 m_bcast_d                               0.502614        1475
 fftwav                                  0.426491       15601
 map_scatter                             0.404846         499
 fock_set_fsg_der                        0.390085           1
 pw_charge_trace_mu_acc                  0.367107       85260
 vhamil_trace_mu_acc                     0.365651       82320
 eccp                                    0.324857        2280
 vnlac0_acc                              0.314888        2361
 depsum_two_bands_rholm_trace_m          0.297900       41160
 fft_and_gather                          0.279684         580
 depsum_two_bands_rholm_trace_m          0.276206       38220
 orth1                                   0.257137        3843
 fock_set_fsg                            0.204765           1
 choleski                                0.200360         560
 calc_dllmm_trans_and_overl_foc          0.195382       41160
 calc_dllmm_trans_and_overl_foc          0.188456       38220
 acc_init_cublas                         0.147800           1
 orthch                                  0.139403          27
 fock_set_gfac_der                       0.129146        2940
 eddiag                                  0.124596          14
 contraction                             0.107707       26460
 reduce                                  0.098598         560
 pw_charge                               0.098212        3969
 w1_copy                                 0.096196       16563
 wrk_allocate                            0.087696           1
 fock_charge_mu                          0.087139       85260
 strenl                                  0.079941           1
 m_bcast_z                               0.071440        1681
 proj1_acc                               0.067758        1160
 overl                                   0.067314        2842
 phase                                   0.063147        1201
 acc_init_cusolver                       0.043861           1
 proall                                  0.042239           1
 fft3d_mpi                               0.040048       79933
 elmin_all                               0.038838           1
 potlok                                  0.033299          29
 overl1                                  0.032425        1841
 m_ibcast_z_from                         0.027657       58160
 hamiltmu                                0.026991         721
 m_ireduce_z_to                          0.022224       53760
 depsum_two_bands_rholm_trace_m          0.021646        2940
 depsum_two_bands_rholm_trace_m          0.021262        2940
 fftext_mpi                              0.020305        2401
 fftwav_mpi                              0.018531       15601
 fftbas_plan_mpi                         0.017180         443
 fornl                                   0.016016           1
 w1_dot                                  0.014787         560
 projlat_der                             0.014496          20
 calc_dllmm_trans_and_overl_foc          0.014185        2940
 apply_gfac_der_mu                       0.012661        2940
 projmu_acc                              0.011781         521
 vhamil                                  0.011411        1281
 fock_ace_acc_apply                      0.011117         160
 kinhamil                                0.010877        1281
 ggemm                                   0.010692         921
 apply_gfac_weight_mu                    0.010381        2940
 setdij_                                 0.010061          56
 hamilt_local                            0.008316         560
 map_gather                              0.008273         499
 setup_precond                           0.006953         200
 rspher_all                              0.006375          10
 augmentation_charge                     0.006165          27
 proj                                    0.005929          20
 w1_dscal                                0.005490         520
 newband                                 0.005011         821
 fock_ace_construct                      0.004893           1
 force_and_stress                        0.004751           1
 projxyz                                 0.004603          20
 inisym                                  0.004193           1
 apply_precond                           0.003590         521
 dfftw_execute                           0.002713         165
 map_forward                             0.002387         418
 map_backward                            0.002288         468
 pothar                                  0.001969          29
 densta                                  0.001448          38
 waitgth                                 0.001320         560
 waitred                                 0.001279         560
 wrk_deallocate                          0.001162           1
 forloc                                  0.001096           1
 w1_daxpy                                0.001000         160
 set_charge                              0.000809          27
 set_dd_paw                              0.000744          30
 redis_pw_all                            0.000567          26
 w1_projall                              0.000565         521
 fewald                                  0.000353           1
 strelo                                  0.000284           1
 fftbrc_mpi                              0.000268         443
 stufak                                  0.000259           1
 strehar                                 0.000256           1
 fft_gq                                  0.000184          27
 forhar                                  0.000152           1
 strkin                                  0.000149           1
 brgrid                                  0.000119           1
 rsp                                     0.000112           1
 truncate_high_frequency_w1              0.000094         921
 crpa_reader                             0.000026           1
 posmap                                  0.000021           2
 redis_pw_over_bands                     0.000016          27
 rcp                                     0.000016           1
 fordep                                  0.000013           1
 acc_cufft_makeplans                     0.000013           5
 set_dd_magatom                          0.000007           2
 potlok_metagga                          0.000005          29
 vectorpot                               0.000004           1
 shift_bands_between_low_high            0.000003          20
 rotate_active_occupied_orbital          0.000000           1
 ---------------------------------------------------------------
  summed up times     145.1068720817566     
 
 Accumulative profile
 ====================
 
             routine name                   CPU           calls
 ---------------------------------------------------------------
 total_time                            145.106872           1
 elmin_all                             123.369229           1
 fock_all_dblbuf                        98.496429          28
 fock_fwd                               85.645092         560
 edwav                                  57.573552          26
 eddiag                                 50.176822          14
 fock_set_gfac_vkpt                     15.458712       82320
 phaser_hf                              14.733593       85260
 fock_bck                                7.990288         560
 force_and_stress                        7.748769           1
 fock_force                              7.255176           1
 eddav                                   6.290108           5
 redis_pw                                5.607488        6063
 acc_cufft_makeplan                      4.438076          55
 m_sumb_d                                4.286344        4768
 dllmm_trans_eccp_nl_fock_acc            4.236014       26460
 init_acc                                3.925069           1
 orthch                                  3.535958          27
 redis_proj                              2.771116       10084
 set_charge                              2.252555          27
 fft3d_mpi                               2.141374       79933
 potlok                                  2.110877          29
 fock_charge_mu                          2.026495       85260
 rpromu_hf_acc                           1.630126      111720
 set_dd_paw                              1.575658          30
 fftbrc_mpi                              1.510330         443
 fftbas_plan_mpi                         1.510062         443
 m_alltoall_d                            1.412117       23807
 lapack                                  1.346200         721
 lincom                                  1.341960        1720
 map_forward                             1.289727         418
 soft_charge_sym                         1.141660          27
 batched_fft                             1.102706      170520
 depsum_sym                              1.093184          27
 m_alltoallv_z                           1.072375         499
 racc0mu_hf_acc                          0.955234       85260
 acc_cufft_makeplans                     0.789270           5
 spher                                   0.754476         280
 fft3d                                   0.709213       95091
 fock_set_gfac_der                       0.619822        2940
 redis_pw_over_bands                     0.593169          27
 redis_pw_all                            0.593152          26
 ggaall_grid                             0.592122          30
 fftwav_mpi                              0.563239       15601
 apply_gfac_exchange_mu_acc              0.549848       82320
 fftwav                                  0.544708       15601
 m_bcast_d                               0.502614        1475
 projlat_der                             0.487832          20
 wrk_allocate                            0.483254           1
 map_scatter                             0.404846         499
 fock_set_fsg_der                        0.390085           1
 strenl                                  0.383528           1
 pw_charge_trace_mu_acc                  0.367107       85260
 vhamil_trace_mu_acc                     0.365651       82320
 fft_and_gather                          0.332930         580
 eccp                                    0.324857        2280
 vnlac0_acc                              0.314888        2361
 depsum_two_bands_rholm_trace_m          0.297900       41160
 newband                                 0.279884         821
 depsum_two_bands_rholm_trace_m          0.276206       38220
 orth1                                   0.257137        3843
 fock_ace_acc_apply                      0.231048         160
 fock_set_fsg                            0.204765           1
 map_backward                            0.200442         468
 choleski                                0.200360         560
 calc_dllmm_trans_and_overl_foc          0.195382       41160
 calc_dllmm_trans_and_overl_foc          0.188456       38220
 acc_init_cublas                         0.147800           1
 reduce                                  0.120822         560
 contraction                             0.107707       26460
 pw_charge                               0.098212        3969
 w1_copy                                 0.096196       16563
 fock_ace_construct                      0.085722           1
 m_bcast_z                               0.071440        1681
 proj1_acc                               0.067758        1160
 overl                                   0.067314        2842
 phase                                   0.063147        1201
 hamiltmu                                0.063094         721
 proall                                  0.050171           1
 acc_init_cusolver                       0.043861           1
 hamilt_local                            0.039906         560
 fftext_mpi                              0.039629        2401
 kinhamil                                0.036248        1281
 overl1                                  0.032425        1841
 m_ibcast_z_from                         0.027657       58160
 setdij_                                 0.023108          56
 m_ireduce_z_to                          0.022224       53760
 depsum_two_bands_rholm_trace_m          0.021646        2940
 depsum_two_bands_rholm_trace_m          0.021262        2940
 fornl                                   0.017332           1
 augmentation_charge                     0.016902          27
 densta                                  0.015215          38
 w1_dot                                  0.014965         560
 calc_dllmm_trans_and_overl_foc          0.014185        2940
 apply_gfac_der_mu                       0.012661        2940
 w1_projall                              0.012346         521
 fft_gq                                  0.011939          27
 projmu_acc                              0.011781         521
 vhamil                                  0.011411        1281
 ggemm                                   0.010692         921
 apply_gfac_weight_mu                    0.010381        2940
 map_gather                              0.008273         499
 setup_precond                           0.006953         200
 proj                                    0.006783          20
 rspher_all                              0.006375          10
 w1_dscal                                0.005490         520
 pothar                                  0.005323          29
 projxyz                                 0.004639          20
 inisym                                  0.004214           1
 apply_precond                           0.003590         521
 dfftw_execute                           0.002713         165
 fordep                                  0.001516           1
 waitgth                                 0.001320         560
 waitred                                 0.001279         560
 wrk_deallocate                          0.001162           1
 forloc                                  0.001128           1
 w1_daxpy                                0.001000         160
 fewald                                  0.000706           1
 strelo                                  0.000331           1
 strehar                                 0.000275           1
 stufak                                  0.000259           1
 forhar                                  0.000223           1
 strkin                                  0.000210           1
 brgrid                                  0.000119           1
 rsp                                     0.000112           1
 truncate_high_frequency_w1              0.000094         921
 crpa_reader                             0.000026           1
 posmap                                  0.000021           2
 rcp                                     0.000016           1
 set_dd_magatom                          0.000007           2
 potlok_metagga                          0.000005          29
 vectorpot                               0.000004           1
 shift_bands_between_low_high            0.000003          20
 rotate_active_occupied_orbital          0.000000           1
 ---------------------------------------------------------------
 
Profiling took   0.172097  0.121688  0.003811  0.003720 seconds
Profiling took   0.101481 seconds
