<?xml version="1.0" encoding="ISO-8859-1"?>
<modeling>
 <generator>
  <i name="program" type="string">vasp </i>
  <i name="version" type="string">6.3.2  </i>
  <i name="subversion" type="string">27Jun22 (build Jan 18 2024 14:18:24) complex                          parallel </i>
  <i name="platform" type="string">LinuxNV_CrayMPICH </i>
  <i name="date" type="string">2024 05 19 </i>
  <i name="time" type="string">19:45:49 </i>
 </generator>
 <incar>
  <i type="string" name="SYSTEM">Be4P3Rb</i>
  <i type="int" name="ISTART">     0</i>
  <i type="string" name="PREC">Accurate</i>
  <i type="string" name="ALGO">All</i>
  <i type="int" name="ICHARG">     2</i>
  <i type="int" name="IBRION">     2</i>
  <i name="EDIFF">      0.00001000</i>
  <i name="EDIFFG">     -0.01000000</i>
  <i type="int" name="NSW">  1000</i>
  <i type="int" name="ISIF">     3</i>
  <i name="ENCUT">    400.00000000</i>
  <i type="int" name="ISMEAR">     0</i>
  <i name="SIGMA">      0.01000000</i>
  <i type="logical" name="LWAVE"> F  </i>
  <i type="logical" name="LCHARG"> F  </i>
  <i name="HFSCREEN">      0.20000000</i>
  <i type="logical" name="LHFCALC"> T  </i>
  <i type="string" name="GGA">PE</i>
  <i name="AEXX">      0.25000000</i>
 </incar>
 <primitive_cell>
  <structure name="primitive_cell" >
   <crystal>
    <varray name="basis" >
     <v>       3.64446899       0.00000000      -0.00000000 </v>
     <v>       0.00000000       3.64446899       0.00000000 </v>
     <v>       0.00000000       0.00000000       9.78381861 </v>
    </varray>
    <i name="volume">    129.95018760 </i>
    <varray name="rec_basis" >
     <v>       0.27438840       0.00000000       0.00000000 </v>
     <v>      -0.00000000       0.27438840       0.00000000 </v>
     <v>       0.00000000      -0.00000000       0.10220958 </v>
    </varray>
   </crystal>
   <varray name="positions" >
    <v>       0.00000000       0.00000000       0.50000000 </v>
    <v>       0.00000000       0.50000000       0.14297177 </v>
    <v>       0.00000000       0.50000000       0.85702823 </v>
    <v>       0.50000000       0.00000000       0.85702823 </v>
    <v>       0.50000000       0.00000000       0.14297177 </v>
    <v>       0.00000000       0.00000000       0.00000000 </v>
    <v>       0.50000000       0.50000000       0.26060231 </v>
    <v>       0.50000000       0.50000000       0.73939769 </v>
   </varray>
  </structure>
  <varray name="primitive_index" >
   <v type="int" >        1 </v>
   <v type="int" >        2 </v>
   <v type="int" >        3 </v>
   <v type="int" >        4 </v>
   <v type="int" >        5 </v>
   <v type="int" >        6 </v>
   <v type="int" >        7 </v>
   <v type="int" >        8 </v>
  </varray>
 </primitive_cell>
 <kpoints>
  <generation param="Gamma">
   <v type="int" name="divisions">       7        7        3 </v>
   <v name="usershift">      0.00000000       0.00000000       0.00000000 </v>
   <v name="genvec1">      0.14285714       0.00000000       0.00000000 </v>
   <v name="genvec2">      0.00000000       0.14285714       0.00000000 </v>
   <v name="genvec3">      0.00000000       0.00000000       0.33333333 </v>
   <v name="shift">      0.00000000       0.00000000       0.00000000 </v>
  </generation>
  <varray name="kpointlist" >
   <v>       0.00000000       0.00000000       0.00000000 </v>
   <v>       0.14285714       0.00000000       0.00000000 </v>
   <v>       0.28571429       0.00000000       0.00000000 </v>
   <v>       0.42857143       0.00000000       0.00000000 </v>
   <v>       0.14285714       0.14285714       0.00000000 </v>
   <v>       0.28571429       0.14285714       0.00000000 </v>
   <v>       0.42857143       0.14285714       0.00000000 </v>
   <v>       0.28571429       0.28571429       0.00000000 </v>
   <v>       0.42857143       0.28571429       0.00000000 </v>
   <v>       0.42857143       0.42857143       0.00000000 </v>
   <v>       0.00000000       0.00000000       0.33333333 </v>
   <v>       0.14285714       0.00000000       0.33333333 </v>
   <v>       0.28571429       0.00000000       0.33333333 </v>
   <v>       0.42857143       0.00000000       0.33333333 </v>
   <v>       0.14285714       0.14285714       0.33333333 </v>
   <v>       0.28571429       0.14285714       0.33333333 </v>
   <v>       0.42857143       0.14285714       0.33333333 </v>
   <v>       0.28571429       0.28571429       0.33333333 </v>
   <v>       0.42857143       0.28571429       0.33333333 </v>
   <v>       0.42857143       0.42857143       0.33333333 </v>
  </varray>
  <varray name="weights" >
   <v>       0.00680272 </v>
   <v>       0.02721088 </v>
   <v>       0.02721088 </v>
   <v>       0.02721088 </v>
   <v>       0.02721088 </v>
   <v>       0.05442177 </v>
   <v>       0.05442177 </v>
   <v>       0.02721088 </v>
   <v>       0.05442177 </v>
   <v>       0.02721088 </v>
   <v>       0.01360544 </v>
   <v>       0.05442177 </v>
   <v>       0.05442177 </v>
   <v>       0.05442177 </v>
   <v>       0.05442177 </v>
   <v>       0.10884354 </v>
   <v>       0.10884354 </v>
   <v>       0.05442177 </v>
   <v>       0.10884354 </v>
   <v>       0.05442177 </v>
  </varray>
 </kpoints>
 <parameters>
  <separator name="general" >
   <i type="string" name="SYSTEM">Be4P3Rb</i>
   <i type="logical" name="LCOMPAT"> F  </i>
  </separator>
  <separator name="electronic" >
   <i type="string" name="PREC">accura</i>
   <i name="ENMAX">    400.00000000</i>
   <i name="ENAUG">    780.94400000</i>
   <i name="EDIFF">      0.00001000</i>
   <i type="int" name="IALGO">    58</i>
   <i type="int" name="IWAVPR">    11</i>
   <i type="int" name="NBANDS">    48</i>
   <i type="int" name="NBANDSLOW">    -1</i>
   <i type="int" name="NBANDSHIGH">    -1</i>
   <i name="NELECT">     40.00000000</i>
   <i type="int" name="TURBO">     0</i>
   <i type="int" name="IRESTART">     0</i>
   <i type="int" name="NREBOOT">     0</i>
   <i type="int" name="NMIN">     0</i>
   <i name="EREF">      0.00000000</i>
   <separator name="electronic smearing" >
    <i type="int" name="ISMEAR">     0</i>
    <i name="SIGMA">      0.01000000</i>
    <i name="KSPACING">      0.50000000</i>
    <i type="logical" name="KGAMMA"> T  </i>
    <i type="logical" name="KBLOWUP"> T  </i>
   </separator>
   <separator name="electronic projectors" >
    <i type="logical" name="LREAL"> F  </i>
    <v name="ROPT">      0.00000000      0.00000000      0.00000000</v>
    <i type="int" name="LMAXPAW">  -100</i>
    <i type="int" name="LMAXMIX">     2</i>
    <i type="logical" name="NLSPLINE"> F  </i>
   </separator>
   <separator name="electronic startup" >
    <i type="int" name="ISTART">     0</i>
    <i type="int" name="ICHARG">     2</i>
    <i type="int" name="INIWAV">     1</i>
   </separator>
   <separator name="electronic spin" >
    <i type="int" name="ISPIN">     1</i>
    <i type="logical" name="LNONCOLLINEAR"> F  </i>
    <v name="MAGMOM">      1.00000000      1.00000000      1.00000000      1.00000000      1.00000000      1.00000000      1.00000000      1.00000000</v>
    <i name="NUPDOWN">     -1.00000000</i>
    <i type="logical" name="LSORBIT"> F  </i>
    <v name="SAXIS">      0.00000000      0.00000000      1.00000000</v>
    <i type="logical" name="LSPIRAL"> F  </i>
    <v name="QSPIRAL">      0.00000000      0.00000000      0.00000000</v>
    <i type="logical" name="LZEROZ"> F  </i>
   </separator>
   <separator name="electronic exchange-correlation" >
    <i type="logical" name="LASPH"> F  </i>
    <i type="logical" name="LMETAGGA"> F  </i>
   </separator>
   <separator name="electronic convergence" >
    <i type="int" name="NELM">    60</i>
    <i type="int" name="NELMDL">    -5</i>
    <i type="int" name="NELMIN">     2</i>
    <i name="ENINI">    400.00000000</i>
    <separator name="electronic convergence detail" >
     <i type="logical" name="LDIAG"> T  </i>
     <i type="logical" name="LSUBROT"> F  </i>
     <i name="WEIMIN">      0.00100000</i>
     <i name="EBREAK">      0.00000005</i>
     <i name="DEPER">      0.30000000</i>
     <i type="int" name="NRMM">     4</i>
     <i name="TIME">      0.40000000</i>
    </separator>
   </separator>
   <separator name="electronic mixer" >
    <i name="AMIX">      0.40000000</i>
    <i name="BMIX">      1.00000000</i>
    <i name="AMIN">      0.10000000</i>
    <i name="AMIX_MAG">      1.60000000</i>
    <i name="BMIX_MAG">      1.00000000</i>
    <separator name="electronic mixer details" >
     <i type="int" name="IMIX">     4</i>
     <i type="logical" name="MIXFIRST"> F  </i>
     <i type="int" name="MAXMIX">   -45</i>
     <i name="WC">    100.00000000</i>
     <i type="int" name="INIMIX">     1</i>
     <i type="int" name="MIXPRE">     1</i>
     <i type="int" name="MREMOVE">     5</i>
    </separator>
   </separator>
   <separator name="electronic dipolcorrection" >
    <i type="logical" name="LDIPOL"> F  </i>
    <i type="logical" name="LMONO"> F  </i>
    <i type="int" name="IDIPOL">     0</i>
    <i name="EPSILON">      1.00000000</i>
    <v name="DIPOL">   -100.00000000   -100.00000000   -100.00000000</v>
    <i name="EFIELD">      0.00000000</i>
   </separator>
  </separator>
  <separator name="grids" >
   <i type="int" name="NGX">    24</i>
   <i type="int" name="NGY">    24</i>
   <i type="int" name="NGZ">    64</i>
   <i type="int" name="NGXF">    48</i>
   <i type="int" name="NGYF">    48</i>
   <i type="int" name="NGZF">   128</i>
   <i type="logical" name="ADDGRID"> F  </i>
  </separator>
  <separator name="ionic" >
   <i type="int" name="NSW">  1000</i>
   <i type="int" name="IBRION">     2</i>
   <i type="int" name="MDALGO">     0</i>
   <i type="int" name="ISIF">     3</i>
   <i name="PSTRESS">      0.00000000</i>
   <i name="EDIFFG">     -0.01000000</i>
   <i type="int" name="NFREE">     1</i>
   <i name="POTIM">      0.50000000</i>
   <i name="SMASS">     -3.00000000</i>
   <i name="SCALEE">      1.00000000</i>
  </separator>
  <separator name="ionic md" >
   <i name="TEBEG">      0.00010000</i>
   <i name="TEEND">      0.00010000</i>
   <i type="int" name="NBLOCK">     1</i>
   <i type="int" name="KBLOCK">  1000</i>
   <i type="int" name="NPACO">   256</i>
   <i name="APACO">     10.00000000</i>
  </separator>
  <separator name="symmetry" >
   <i type="int" name="ISYM">     3</i>
   <i name="SYMPREC">      0.00001000</i>
  </separator>
  <separator name="dos" >
   <i type="int" name="LORBIT">     0</i>
   <v name="RWIGS">     -1.00000000     -1.00000000     -1.00000000</v>
   <i type="int" name="NEDOS">   301</i>
   <i name="EMIN">     10.00000000</i>
   <i name="EMAX">    -10.00000000</i>
   <i name="EFERMI">      0.00000000</i>
  </separator>
  <separator name="writing" >
   <i type="int" name="NWRITE">     2</i>
   <i type="logical" name="LWAVE"> F  </i>
   <i type="logical" name="LDOWNSAMPLE"> F  </i>
   <i type="logical" name="LCHARG"> F  </i>
   <i type="logical" name="LPARD"> F  </i>
   <i type="logical" name="LVTOT"> F  </i>
   <i type="logical" name="LVHAR"> F  </i>
   <i type="logical" name="LELF"> F  </i>
   <i type="logical" name="LOPTICS"> F  </i>
   <v name="STM">      0.00000000      0.00000000      0.00000000      0.00000000      0.00000000      0.00000000      0.00000000</v>
  </separator>
  <separator name="performance" >
   <i type="int" name="NPAR">    24</i>
   <i type="int" name="NSIM">     4</i>
   <i type="int" name="NBLK">    -1</i>
   <i type="logical" name="LPLANE"> T  </i>
   <i type="logical" name="LSCALAPACK"> T  </i>
   <i type="logical" name="LSCAAWARE"> F  </i>
   <i type="logical" name="LSCALU"> F  </i>
   <i type="logical" name="LASYNC"> F  </i>
   <i type="logical" name="LORBITALREAL"> F  </i>
  </separator>
  <separator name="miscellaneous" >
   <i type="int" name="IDIOT">     3</i>
   <i type="int" name="PHON_NSTRUCT">    -1</i>
   <i type="logical" name="LMUSIC"> F  </i>
   <v name="POMASS">     85.46800000      9.01300000     30.97400000</v>
   <v name="DARWINR">      0.00000000      0.00000000      0.00000000</v>
   <v name="DARWINV">      1.00000000      1.00000000      1.00000000</v>
   <i type="logical" name="LCORR"> T  </i>
  </separator>
  <i type="logical" name="GGA_COMPAT"> T  </i>
  <i type="logical" name="LBERRY"> F  </i>
  <i type="int" name="ICORELEVEL">     0</i>
  <i type="logical" name="LDAU"> F  </i>
  <i type="int" name="I_CONSTRAINED_M">     0</i>
  <separator name="electronic exchange-correlation" >
   <i type="string" name="GGA">PE</i>
   <i type="int" name="VOSKOWN">     0</i>
   <i type="logical" name="LHFCALC"> T  </i>
   <i type="string" name="PRECFOCK">normal</i>
   <i type="logical" name="LSYMGRAD"> F  </i>
   <i type="logical" name="LHFONE"> F  </i>
   <i type="logical" name="LRHFCALC"> F  </i>
   <i type="logical" name="LTHOMAS"> F  </i>
   <i type="logical" name="LMODELHF"> F  </i>
   <i type="logical" name="LFOCKACE"> T  </i>
   <i name="ENCUT4O">     -1.00000000</i>
   <i type="int" name="EXXOEP">     0</i>
   <i type="int" name="FOURORBIT">     0</i>
   <i name="AEXX">      0.25000000</i>
   <i name="HFALPHA">     -1.00000000</i>
   <i name="MCALPHA">      0.00000000</i>
   <i name="ALDAX">      0.75000000</i>
   <i name="AGGAX">      0.75000000</i>
   <i name="ALDAC">      1.00000000</i>
   <i name="AGGAC">      1.00000000</i>
   <i type="int" name="NKREDX">     1</i>
   <i type="int" name="NKREDY">     1</i>
   <i type="int" name="NKREDZ">     1</i>
   <i type="logical" name="SHIFTRED"> F  </i>
   <i type="logical" name="ODDONLY"> F  </i>
   <i type="logical" name="EVENONLY"> F  </i>
   <i type="int" name="LMAXFOCK">     4</i>
   <i type="int" name="NMAXFOCKAE">     1</i>
   <i type="logical" name="LFOCKAEDFT"> F  </i>
   <i name="HFSCREEN">      0.20000000</i>
   <i name="HFSCREENC">      0.20000000</i>
   <i type="int" name="NBANDSGWLOW">     1</i>
  </separator>
  <separator name="vdW DFT" >
   <i type="logical" name="LUSE_VDW"> F  </i>
   <i name="Zab_VDW">     -0.84910000</i>
   <i name="PARAM1">      0.12340000</i>
   <i name="PARAM2">      1.00000000</i>
   <i name="PARAM3">      0.00000000</i>
  </separator>
  <separator name="model GW" >
   <i type="int" name="MODEL_GW">     0</i>
   <i name="MODEL_EPS0">      9.74626407</i>
   <i name="MODEL_ALPHA">      1.00000000</i>
  </separator>
  <separator name="linear response parameters" >
   <i type="logical" name="LEPSILON"> F  </i>
   <i type="logical" name="LRPA"> F  </i>
   <i type="logical" name="LNABLA"> F  </i>
   <i type="logical" name="LVEL"> F  </i>
   <i name="CSHIFT">      0.10000000</i>
   <i name="OMEGAMAX">     -1.00000000</i>
   <i name="DEG_THRESHOLD">      0.00200000</i>
   <i name="RTIME">     -0.10000000</i>
   <i name="WPLASMAI">      0.00000000</i>
   <v name="DFIELD">      0.00000000      0.00000000      0.00000000</v>
   <v name="WPLASMA">      0.00000000      0.00000000      0.00000000      0.00000000      0.00000000      0.00000000      0.00000000      0.00000000      0.00000000</v>
  </separator>
  <separator name="orbital magnetization" >
   <i type="logical" name="NUCIND"> F  </i>
   <v name="MAGPOS">      0.00000000      0.00000000      0.00000000</v>
   <i type="logical" name="LNICSALL"> T  </i>
   <i type="logical" name="ORBITALMAG"> F  </i>
   <i type="logical" name="LMAGBLOCH"> F  </i>
   <i type="logical" name="LCHIMAG"> F  </i>
   <i type="logical" name="LGAUGE"> T  </i>
   <i type="int" name="MAGATOM">     0</i>
   <v name="MAGDIPOL">      0.00000000      0.00000000      0.00000000</v>
   <v name="AVECCONST">      0.00000000      0.00000000      0.00000000</v>
  </separator>
  <separator name="response functions" >
   <i type="logical" name="LFINITE_TEMPERATURE"> F  </i>
   <i type="logical" name="LADDER"> F  </i>
   <i type="logical" name="LRPAFORCE"> F  </i>
   <i type="logical" name="LFXC"> F  </i>
   <i type="logical" name="LHARTREE"> T  </i>
   <i type="int" name="IBSE">     0</i>
   <v type="int" name="KPOINT">    -1     0     0     0</v>
   <i type="logical" name="LTCTC"> F  </i>
   <i type="logical" name="LTCTE"> F  </i>
   <i type="logical" name="LTETE"> F  </i>
   <i type="logical" name="LTRIPLET"> F  </i>
   <i type="logical" name="LFXCEPS"> F  </i>
   <i type="logical" name="LFXHEG"> F  </i>
   <i type="int" name="NATURALO">     2</i>
   <i type="logical" name="LHOLEGF"> F  </i>
   <i type="logical" name="L2ORDER"> F  </i>
   <i type="logical" name="LDMP1"> F  </i>
   <i type="logical" name="LMP2LT"> F  </i>
   <i type="logical" name="LSMP2LT"> F  </i>
   <i type="logical" name="LGWLF"> F  </i>
   <i name="ENCUTGW">     -2.00000000</i>
   <i name="ENCUTGWSOFT">     -2.00000000</i>
   <i name="ENCUTLF">     -1.00000000</i>
   <i type="logical" name="LESF_SPLINES"> F  </i>
   <i type="int" name="LMAXMP2">    -1</i>
   <i name="SCISSOR">      0.00000000</i>
   <i type="int" name="NOMEGA">     0</i>
   <i type="int" name="NOMEGAR">     0</i>
   <i type="int" name="NBANDSGW">    -1</i>
   <i type="int" name="NBANDSO">    -1</i>
   <i type="int" name="NBANDSV">    -1</i>
   <i type="int" name="NELMGW">     1</i>
   <i type="int" name="NELMHF">     1</i>
   <i type="int" name="DIM">     3</i>
   <i type="int" name="IESPILON">     4</i>
   <i type="int" name="ANTIRES">     0</i>
   <i name="OMEGAMAX">    -30.00000000</i>
   <i name="OMEGAMIN">    -30.00000000</i>
   <i name="OMEGATL">   -200.00000000</i>
   <i type="int" name="OMEGAGRID">     0</i>
   <i name="CSHIFT">     -0.10000000</i>
   <i type="logical" name="LSELFENERGY"> F  </i>
   <i type="logical" name="LSPECTRAL"> F  </i>
   <i type="logical" name="LSPECTRALGW"> F  </i>
   <i type="logical" name="LSINGLES"> F  </i>
   <i type="logical" name="LFERMIGW"> F  </i>
   <i type="logical" name="ODDONLYGW"> F  </i>
   <i type="logical" name="EVENONLYGW"> F  </i>
   <i type="int" name="NKREDLFX">     1</i>
   <i type="int" name="NKREDLFY">     1</i>
   <i type="int" name="NKREDLFZ">     1</i>
   <i type="int" name="MAXMEM">  2800</i>
   <i type="int" name="TELESCOPE">     0</i>
   <i type="int" name="NTAUPAR">    -1</i>
   <i type="int" name="NOMEGAPAR">    -1</i>
   <i name="DAMP_NEWTON">      0.80000001</i>
   <i name="LAMBDA">      1.00000000</i>
  </separator>
  <separator name="External order field" >
   <i name="OFIELD_KAPPA">      0.00000000</i>
   <v name="OFIELD_K">      0.00000000      0.00000000      0.00000000</v>
   <i name="OFIELD_Q6_NEAR">      0.00000000</i>
   <i name="OFIELD_Q6_FAR">      0.00000000</i>
   <i name="OFIELD_A">      0.00000000</i>
  </separator>
  <separator name="optional k-points parameters" >
   <i type="int" name="KPOINTS_OPT_MODE">     1</i>
   <i type="logical" name="LKPOINTS_OPT"> F  </i>
  </separator>
 </parameters>
 <atominfo>
  <atoms>       8 </atoms>
  <types>       3 </types>
  <array name="atoms" >
   <dimension dim="1">ion</dimension>
   <field type="string">element</field>
   <field type="int">atomtype</field>
   <set>
    <rc><c>Rb</c><c>   1</c></rc>
    <rc><c>Be</c><c>   2</c></rc>
    <rc><c>Be</c><c>   2</c></rc>
    <rc><c>Be</c><c>   2</c></rc>
    <rc><c>Be</c><c>   2</c></rc>
    <rc><c>P </c><c>   3</c></rc>
    <rc><c>P </c><c>   3</c></rc>
    <rc><c>P </c><c>   3</c></rc>
   </set>
  </array>
  <array name="atomtypes" >
   <dimension dim="1">type</dimension>
   <field type="int">atomspertype</field>
   <field type="string">element</field>
   <field>mass</field>
   <field>valence</field>
   <field type="string">pseudopotential</field>
   <set>
    <rc><c>   1</c><c>Rb</c><c>     85.46800000</c><c>      9.00000000</c><c>  PAW_PBE Rb_sv 06Sep2000               </c></rc>
    <rc><c>   4</c><c>Be</c><c>      9.01300000</c><c>      4.00000000</c><c>  PAW_PBE Be_sv 06Sep2000               </c></rc>
    <rc><c>   3</c><c>P </c><c>     30.97400000</c><c>      5.00000000</c><c>  PAW_PBE P 06Sep2000                   </c></rc>
   </set>
  </array>
 </atominfo>
 <structure name="initialpos" >
  <crystal>
   <varray name="basis" >
    <v>       3.64446899       0.00000000      -0.00000000 </v>
    <v>       0.00000000       3.64446899       0.00000000 </v>
    <v>       0.00000000       0.00000000       9.78381861 </v>
   </varray>
   <i name="volume">    129.95018760 </i>
   <varray name="rec_basis" >
    <v>       0.27438840       0.00000000       0.00000000 </v>
    <v>      -0.00000000       0.27438840       0.00000000 </v>
    <v>       0.00000000      -0.00000000       0.10220958 </v>
   </varray>
  </crystal>
  <varray name="positions" >
   <v>       0.00000000       0.00000000       0.50000000 </v>
   <v>       0.00000000       0.50000000       0.14297177 </v>
   <v>       0.00000000       0.50000000       0.85702823 </v>
   <v>       0.50000000       0.00000000       0.85702823 </v>
   <v>       0.50000000       0.00000000       0.14297177 </v>
   <v>       0.00000000       0.00000000       0.00000000 </v>
   <v>       0.50000000       0.50000000       0.26060231 </v>
   <v>       0.50000000       0.50000000       0.73939769 </v>
  </varray>
 </structure>
 <calculation>
  <scstep>
   <time name="total">    2.90    2.54</time>
   <energy>
    <i name="alphaZ">    109.49705624 </i>
    <i name="ewald">  -1572.65416475 </i>
    <i name="hartreedc">   -452.90696352 </i>
    <i name="XCdc">    108.76794538 </i>
    <i name="pawpsdc">   1464.19494518 </i>
    <i name="pawaedc">  -2619.65879499 </i>
    <i name="eentropy">     -0.00000000 </i>
    <i name="bandstr">   -684.23292639 </i>
    <i name="atom">   2778.36867015 </i>
    <i name="e_fr_energy">   -868.62423269 </i>
    <i name="e_wo_entrp">   -868.62423269 </i>
    <i name="e_0_energy">   -868.62423269 </i>
   </energy>
  </scstep>
  <scstep>
   <time name="total">    1.40    0.91</time>
   <energy>
    <i name="e_fr_energy">  -1082.86486131 </i>
    <i name="e_wo_entrp">  -1082.86486131 </i>
    <i name="e_0_energy">  -1082.86486131 </i>
   </energy>
  </scstep>
  <scstep>
   <time name="total">    2.26    1.49</time>
   <energy>
    <i name="e_fr_energy">  -1098.21941803 </i>
    <i name="e_wo_entrp">  -1098.21941803 </i>
    <i name="e_0_energy">  -1098.21941803 </i>
   </energy>
  </scstep>
  <scstep>
   <time name="total">    1.54    1.00</time>
   <energy>
    <i name="e_fr_energy">  -1098.59888394 </i>
    <i name="e_wo_entrp">  -1098.59888394 </i>
    <i name="e_0_energy">  -1098.59888394 </i>
   </energy>
  </scstep>
  <scstep>
   <time name="total">    6.50    5.14</time>
   <energy>
    <i name="e_fr_energy">    -40.44024574 </i>
    <i name="e_wo_entrp">    -40.44024574 </i>
    <i name="e_0_energy">    -40.44024574 </i>
   </energy>
  </scstep>
  <scstep>
   <time name="total">   10.85    8.47</time>
   <energy>
    <i name="e_fr_energy">    -37.64758933 </i>
    <i name="e_wo_entrp">    -37.64758933 </i>
    <i name="e_0_energy">    -37.64758933 </i>
   </energy>
  </scstep>
  <scstep>
   <time name="total">   10.14    8.67</time>
   <energy>
    <i name="e_fr_energy">    -38.87587385 </i>
    <i name="e_wo_entrp">    -38.87587385 </i>
    <i name="e_0_energy">    -38.87587385 </i>
   </energy>
  </scstep>
  <scstep>
   <time name="total">    9.97    8.24</time>
   <energy>
    <i name="e_fr_energy">    -38.98574859 </i>
    <i name="e_wo_entrp">    -38.98574859 </i>
    <i name="e_0_energy">    -38.98574859 </i>
   </energy>
  </scstep>
  <scstep>
   <time name="total">    9.66    8.07</time>
   <energy>
    <i name="e_fr_energy">    -39.08062559 </i>
    <i name="e_wo_entrp">    -39.08062559 </i>
    <i name="e_0_energy">    -39.08062559 </i>
   </energy>
  </scstep>
  <scstep>
   <time name="total">   10.57    8.34</time>
   <energy>
    <i name="e_fr_energy">    -39.10745622 </i>
    <i name="e_wo_entrp">    -39.10745622 </i>
    <i name="e_0_energy">    -39.10745622 </i>
   </energy>
  </scstep>
  <scstep>
   <time name="total">   10.41    8.24</time>
   <energy>
    <i name="e_fr_energy">    -39.11617279 </i>
    <i name="e_wo_entrp">    -39.11617279 </i>
    <i name="e_0_energy">    -39.11617279 </i>
   </energy>
  </scstep>
  <scstep>
   <time name="total">   10.03    8.27</time>
   <energy>
    <i name="e_fr_energy">    -39.11937971 </i>
    <i name="e_wo_entrp">    -39.11937971 </i>
    <i name="e_0_energy">    -39.11937971 </i>
   </energy>
  </scstep>
  <scstep>
   <time name="total">   10.42    8.27</time>
   <energy>
    <i name="e_fr_energy">    -39.12072660 </i>
    <i name="e_wo_entrp">    -39.12072660 </i>
    <i name="e_0_energy">    -39.12072660 </i>
   </energy>
  </scstep>
  <scstep>
   <time name="total">   10.50    8.94</time>
   <energy>
    <i name="e_fr_energy">    -39.12123947 </i>
    <i name="e_wo_entrp">    -39.12123947 </i>
    <i name="e_0_energy">    -39.12123947 </i>
   </energy>
  </scstep>
  <scstep>
   <time name="total">    9.64    8.06</time>
   <energy>
    <i name="e_fr_energy">    -39.12141374 </i>
    <i name="e_wo_entrp">    -39.12141374 </i>
    <i name="e_0_energy">    -39.12141374 </i>
   </energy>
  </scstep>
  <scstep>
   <time name="total">   10.84    8.47</time>
   <energy>
    <i name="e_fr_energy">    -39.12148049 </i>
    <i name="e_wo_entrp">    -39.12148049 </i>
    <i name="e_0_energy">    -39.12148049 </i>
   </energy>
  </scstep>
  <scstep>
   <time name="total">   10.41    8.48</time>
   <energy>
    <i name="e_fr_energy">    -39.12150533 </i>
    <i name="e_wo_entrp">    -39.12150533 </i>
    <i name="e_0_energy">    -39.12150533 </i>
   </energy>
  </scstep>
  <scstep>
   <time name="total">   14.59   11.76</time>
   <energy>
    <i name="alphaZ">    109.49705624 </i>
    <i name="ewald">  -1572.65416475 </i>
    <i name="hartreedc">   -465.67530685 </i>
    <i name="XCdc">     84.14594688 </i>
    <i name="pawpsdc">   4085.42456448 </i>
    <i name="pawaedc">  -4188.68256451 </i>
    <i name="eentropy">     -0.00000000 </i>
    <i name="bandstr">   -967.15101799 </i>
    <i name="atom">   2778.36867015 </i>
    <i name="e_fr_energy">    -39.12151469 </i>
    <i name="e_wo_entrp">    -39.12151469 </i>
    <i name="e_0_energy">    -39.12151469 </i>
   </energy>
  </scstep>
  <structure>
   <crystal>
    <varray name="basis" >
     <v>       3.64446899       0.00000000      -0.00000000 </v>
     <v>       0.00000000       3.64446899       0.00000000 </v>
     <v>       0.00000000       0.00000000       9.78381861 </v>
    </varray>
    <i name="volume">    129.95018760 </i>
    <varray name="rec_basis" >
     <v>       0.27438840       0.00000000       0.00000000 </v>
     <v>      -0.00000000       0.27438840       0.00000000 </v>
     <v>       0.00000000      -0.00000000       0.10220958 </v>
    </varray>
   </crystal>
   <varray name="positions" >
    <v>       0.00000000       0.00000000       0.50000000 </v>
    <v>       0.00000000       0.50000000       0.14297177 </v>
    <v>       0.00000000       0.50000000       0.85702823 </v>
    <v>       0.50000000       0.00000000       0.85702823 </v>
    <v>       0.50000000       0.00000000       0.14297177 </v>
    <v>       0.00000000       0.00000000       0.00000000 </v>
    <v>       0.50000000       0.50000000       0.26060231 </v>
    <v>       0.50000000       0.50000000       0.73939769 </v>
   </varray>
  </structure>
  <varray name="forces" >
   <v>       0.00000000       0.00000000      -0.00000000 </v>
   <v>       0.00000000      -0.00000000      -0.00996957 </v>
   <v>       0.00000000      -0.00000000       0.00996957 </v>
   <v>      -0.00000000       0.00000000       0.00996957 </v>
   <v>       0.00000000       0.00000000      -0.00996957 </v>
   <v>       0.00000000       0.00000000      -0.00000000 </v>
   <v>      -0.00000000       0.00000000      -0.00190485 </v>
   <v>      -0.00000000      -0.00000000       0.00190485 </v>
  </varray>
  <varray name="stress" >
   <v>      -0.13068422       0.00000000       0.00000000 </v>
   <v>       0.00000000      -0.13068422       0.00000000 </v>
   <v>       0.00000000       0.00000000       0.00789703 </v>
  </varray>
  <energy>
   <i name="e_fr_energy">    -39.12151469 </i>
   <i name="e_wo_entrp">    -39.12151469 </i>
   <i name="e_0_energy">    -39.12151469 </i>
  </energy>
  <time name="totalsc">  160.68  131.22</time>
  <eigenvalues>
   <array>
    <dimension dim="1">band</dimension>
    <dimension dim="2">kpoint</dimension>
    <dimension dim="3">spin</dimension>
    <field>eigene</field>
    <field>occ</field>
    <set>
     <set comment="spin 1">
      <set comment="kpoint 1">
       <r> -102.0114    1.0000 </r>
       <r> -102.0111    1.0000 </r>
       <r> -102.0065    1.0000 </r>
       <r> -102.0060    1.0000 </r>
       <r>  -25.7064    1.0000 </r>
       <r>  -10.6279    1.0000 </r>
       <r>   -9.4364    1.0000 </r>
       <r>   -8.2608    1.0000 </r>
       <r>   -8.2608    1.0000 </r>
       <r>   -7.9237    1.0000 </r>
       <r>   -7.6320    1.0000 </r>
       <r>   -1.7435    1.0000 </r>
       <r>   -0.4041    1.0000 </r>
       <r>   -0.4041    1.0000 </r>
       <r>    0.6633    1.0000 </r>
       <r>    1.2687    1.0000 </r>
       <r>    1.2687    1.0000 </r>
       <r>    3.1761    1.0000 </r>
       <r>    3.6265    1.0000 </r>
       <r>    3.6265    1.0000 </r>
       <r>    5.2130    0.0000 </r>
       <r>    5.2384    0.0000 </r>
       <r>    7.1727    0.0000 </r>
       <r>    7.5670    0.0000 </r>
       <r>    8.0798    0.0000 </r>
       <r>    8.2076    0.0000 </r>
       <r>    8.6518    0.0000 </r>
       <r>    8.6518    0.0000 </r>
       <r>    9.4164    0.0000 </r>
       <r>    9.7690    0.0000 </r>
       <r>   11.9559    0.0000 </r>
       <r>   11.9559    0.0000 </r>
       <r>   12.3464    0.0000 </r>
       <r>   12.3464    0.0000 </r>
       <r>   13.7717    0.0000 </r>
       <r>   13.7889    0.0000 </r>
       <r>   13.9207    0.0000 </r>
       <r>   14.1877    0.0000 </r>
       <r>   14.5290    0.0000 </r>
       <r>   14.5290    0.0000 </r>
       <r>   15.0382    0.0000 </r>
       <r>   15.2625    0.0000 </r>
       <r>   15.9482    0.0000 </r>
       <r>   15.9484    0.0000 </r>
       <r>   16.2211    0.0000 </r>
       <r>   18.0645    0.0000 </r>
       <r>   18.3096    0.0000 </r>
       <r>   18.3983    0.0000 </r>
      </set>
      <set comment="kpoint 2">
       <r> -102.0111    1.0000 </r>
       <r> -102.0108    1.0000 </r>
       <r> -102.0067    1.0000 </r>
       <r> -102.0063    1.0000 </r>
       <r>  -25.6904    1.0000 </r>
       <r>  -10.4563    1.0000 </r>
       <r>   -9.3066    1.0000 </r>
       <r>   -8.5172    1.0000 </r>
       <r>   -8.2427    1.0000 </r>
       <r>   -7.8903    1.0000 </r>
       <r>   -7.5016    1.0000 </r>
       <r>   -1.8800    1.0000 </r>
       <r>   -1.4662    1.0000 </r>
       <r>   -0.2114    1.0000 </r>
       <r>    0.5435    1.0000 </r>
       <r>    1.0345    1.0000 </r>
       <r>    1.4391    1.0000 </r>
       <r>    2.3412    1.0000 </r>
       <r>    3.2005    1.0000 </r>
       <r>    3.5304    1.0000 </r>
       <r>    5.4900    0.0000 </r>
       <r>    6.5804    0.0000 </r>
       <r>    7.7367    0.0000 </r>
       <r>    7.7475    0.0000 </r>
       <r>    8.2810    0.0000 </r>
       <r>    8.4985    0.0000 </r>
       <r>    8.5751    0.0000 </r>
       <r>    9.2716    0.0000 </r>
       <r>    9.9052    0.0000 </r>
       <r>   10.2425    0.0000 </r>
       <r>   11.0498    0.0000 </r>
       <r>   11.2276    0.0000 </r>
       <r>   11.6208    0.0000 </r>
       <r>   11.8824    0.0000 </r>
       <r>   12.7287    0.0000 </r>
       <r>   13.4247    0.0000 </r>
       <r>   13.8217    0.0000 </r>
       <r>   14.0999    0.0000 </r>
       <r>   14.7824    0.0000 </r>
       <r>   15.0884    0.0000 </r>
       <r>   15.4246    0.0000 </r>
       <r>   15.7238    0.0000 </r>
       <r>   16.1132    0.0000 </r>
       <r>   16.3829    0.0000 </r>
       <r>   16.9414    0.0000 </r>
       <r>   17.1199    0.0000 </r>
       <r>   17.4478    0.0000 </r>
       <r>   17.5690    0.0000 </r>
      </set>
      <set comment="kpoint 3">
       <r> -102.0105    1.0000 </r>
       <r> -102.0101    1.0000 </r>
       <r> -102.0075    1.0000 </r>
       <r> -102.0070    1.0000 </r>
       <r>  -25.6543    1.0000 </r>
       <r>   -9.9776    1.0000 </r>
       <r>   -8.9730    1.0000 </r>
       <r>   -8.9694    1.0000 </r>
       <r>   -8.2017    1.0000 </r>
       <r>   -7.8136    1.0000 </r>
       <r>   -7.4137    1.0000 </r>
       <r>   -2.7663    1.0000 </r>
       <r>   -2.5776    1.0000 </r>
       <r>    0.1133    1.0000 </r>
       <r>    0.1854    1.0000 </r>
       <r>    0.3415    1.0000 </r>
       <r>    1.8068    1.0000 </r>
       <r>    1.8900    1.0000 </r>
       <r>    2.5381    1.0000 </r>
       <r>    3.1376    1.0000 </r>
       <r>    5.9484    0.0000 </r>
       <r>    7.7316    0.0000 </r>
       <r>    7.9762    0.0000 </r>
       <r>    8.0916    0.0000 </r>
       <r>    8.2916    0.0000 </r>
       <r>    8.6528    0.0000 </r>
       <r>    9.3545    0.0000 </r>
       <r>    9.8320    0.0000 </r>
       <r>   10.4034    0.0000 </r>
       <r>   10.8032    0.0000 </r>
       <r>   10.8236    0.0000 </r>
       <r>   11.1135    0.0000 </r>
       <r>   11.6043    0.0000 </r>
       <r>   11.7276    0.0000 </r>
       <r>   12.0600    0.0000 </r>
       <r>   13.2599    0.0000 </r>
       <r>   13.6139    0.0000 </r>
       <r>   13.8743    0.0000 </r>
       <r>   14.4117    0.0000 </r>
       <r>   14.4362    0.0000 </r>
       <r>   15.0248    0.0000 </r>
       <r>   15.4119    0.0000 </r>
       <r>   15.7872    0.0000 </r>
       <r>   16.6918    0.0000 </r>
       <r>   17.2723    0.0000 </r>
       <r>   17.3217    0.0000 </r>
       <r>   18.0769    0.0000 </r>
       <r>   18.9018    0.0000 </r>
      </set>
      <set comment="kpoint 4">
       <r> -102.0095    1.0000 </r>
       <r> -102.0091    1.0000 </r>
       <r> -102.0085    1.0000 </r>
       <r> -102.0079    1.0000 </r>
       <r>  -25.6249    1.0000 </r>
       <r>   -9.4362    1.0000 </r>
       <r>   -9.2218    1.0000 </r>
       <r>   -8.6435    1.0000 </r>
       <r>   -8.1683    1.0000 </r>
       <r>   -7.7508    1.0000 </r>
       <r>   -7.6798    1.0000 </r>
       <r>   -3.3651    1.0000 </r>
       <r>   -3.1741    1.0000 </r>
       <r>   -1.2224    1.0000 </r>
       <r>    0.4870    1.0000 </r>
       <r>    1.1261    1.0000 </r>
       <r>    1.6193    1.0000 </r>
       <r>    2.2271    1.0000 </r>
       <r>    2.3639    1.0000 </r>
       <r>    2.4082    1.0000 </r>
       <r>    6.4260    0.0000 </r>
       <r>    7.1234    0.0000 </r>
       <r>    7.3952    0.0000 </r>
       <r>    8.0384    0.0000 </r>
       <r>    8.2772    0.0000 </r>
       <r>    8.6255    0.0000 </r>
       <r>    9.3014    0.0000 </r>
       <r>   10.4085    0.0000 </r>
       <r>   10.9371    0.0000 </r>
       <r>   11.0527    0.0000 </r>
       <r>   11.2824    0.0000 </r>
       <r>   11.5629    0.0000 </r>
       <r>   11.6287    0.0000 </r>
       <r>   12.2652    0.0000 </r>
       <r>   12.4954    0.0000 </r>
       <r>   12.7979    0.0000 </r>
       <r>   13.1634    0.0000 </r>
       <r>   13.7751    0.0000 </r>
       <r>   14.2007    0.0000 </r>
       <r>   15.3681    0.0000 </r>
       <r>   15.7479    0.0000 </r>
       <r>   15.9166    0.0000 </r>
       <r>   17.0656    0.0000 </r>
       <r>   17.5034    0.0000 </r>
       <r>   17.6028    0.0000 </r>
       <r>   17.7479    0.0000 </r>
       <r>   17.9867    0.0000 </r>
       <r>   18.2978    0.0000 </r>
      </set>
      <set comment="kpoint 5">
       <r> -102.0109    1.0000 </r>
       <r> -102.0106    1.0000 </r>
       <r> -102.0070    1.0000 </r>
       <r> -102.0065    1.0000 </r>
       <r>  -25.6747    1.0000 </r>
       <r>  -10.2863    1.0000 </r>
       <r>   -9.1853    1.0000 </r>
       <r>   -8.5418    1.0000 </r>
       <r>   -8.4180    1.0000 </r>
       <r>   -7.8499    1.0000 </r>
       <r>   -7.4035    1.0000 </r>
       <r>   -1.9432    1.0000 </r>
       <r>   -1.3605    1.0000 </r>
       <r>   -1.1577    1.0000 </r>
       <r>    0.6387    1.0000 </r>
       <r>    0.6643    1.0000 </r>
       <r>    1.2784    1.0000 </r>
       <r>    2.3413    1.0000 </r>
       <r>    2.3523    1.0000 </r>
       <r>    3.3026    1.0000 </r>
       <r>    6.8537    0.0000 </r>
       <r>    6.8781    0.0000 </r>
       <r>    7.5783    0.0000 </r>
       <r>    8.1817    0.0000 </r>
       <r>    8.4750    0.0000 </r>
       <r>    8.4909    0.0000 </r>
       <r>    9.3348    0.0000 </r>
       <r>    9.3875    0.0000 </r>
       <r>    9.8891    0.0000 </r>
       <r>   10.2724    0.0000 </r>
       <r>   10.2873    0.0000 </r>
       <r>   11.3500    0.0000 </r>
       <r>   11.7193    0.0000 </r>
       <r>   12.0794    0.0000 </r>
       <r>   12.3480    0.0000 </r>
       <r>   13.0676    0.0000 </r>
       <r>   13.5664    0.0000 </r>
       <r>   14.0909    0.0000 </r>
       <r>   14.2685    0.0000 </r>
       <r>   14.5969    0.0000 </r>
       <r>   15.1671    0.0000 </r>
       <r>   15.4054    0.0000 </r>
       <r>   16.0594    0.0000 </r>
       <r>   17.2498    0.0000 </r>
       <r>   17.4103    0.0000 </r>
       <r>   18.1316    0.0000 </r>
       <r>   18.5110    0.0000 </r>
       <r>   18.6855    0.0000 </r>
      </set>
      <set comment="kpoint 6">
       <r> -102.0103    1.0000 </r>
       <r> -102.0099    1.0000 </r>
       <r> -102.0076    1.0000 </r>
       <r> -102.0071    1.0000 </r>
       <r>  -25.6389    1.0000 </r>
       <r>   -9.8138    1.0000 </r>
       <r>   -8.9245    1.0000 </r>
       <r>   -8.8818    1.0000 </r>
       <r>   -8.3993    1.0000 </r>
       <r>   -7.7464    1.0000 </r>
       <r>   -7.3368    1.0000 </r>
       <r>   -2.5880    1.0000 </r>
       <r>   -2.4722    1.0000 </r>
       <r>   -0.7138    1.0000 </r>
       <r>    0.1180    1.0000 </r>
       <r>    0.2487    1.0000 </r>
       <r>    0.9255    1.0000 </r>
       <r>    1.9003    1.0000 </r>
       <r>    2.0983    1.0000 </r>
       <r>    2.7067    1.0000 </r>
       <r>    7.3135    0.0000 </r>
       <r>    7.3175    0.0000 </r>
       <r>    7.7644    0.0000 </r>
       <r>    8.0344    0.0000 </r>
       <r>    8.6664    0.0000 </r>
       <r>    9.2009    0.0000 </r>
       <r>    9.5164    0.0000 </r>
       <r>    9.7356    0.0000 </r>
       <r>   10.1830    0.0000 </r>
       <r>   10.7836    0.0000 </r>
       <r>   11.0125    0.0000 </r>
       <r>   11.3587    0.0000 </r>
       <r>   11.7614    0.0000 </r>
       <r>   12.1925    0.0000 </r>
       <r>   12.2531    0.0000 </r>
       <r>   12.6163    0.0000 </r>
       <r>   13.3621    0.0000 </r>
       <r>   13.8708    0.0000 </r>
       <r>   14.0085    0.0000 </r>
       <r>   14.3367    0.0000 </r>
       <r>   15.2408    0.0000 </r>
       <r>   15.7616    0.0000 </r>
       <r>   16.5573    0.0000 </r>
       <r>   17.4283    0.0000 </r>
       <r>   17.6979    0.0000 </r>
       <r>   18.5434    0.0000 </r>
       <r>   18.7079    0.0000 </r>
       <r>   18.8837    0.0000 </r>
      </set>
      <set comment="kpoint 7">
       <r> -102.0095    1.0000 </r>
       <r> -102.0090    1.0000 </r>
       <r> -102.0085    1.0000 </r>
       <r> -102.0080    1.0000 </r>
       <r>  -25.6099    1.0000 </r>
       <r>   -9.3369    1.0000 </r>
       <r>   -9.1090    1.0000 </r>
       <r>   -8.6010    1.0000 </r>
       <r>   -8.3496    1.0000 </r>
       <r>   -7.6366    1.0000 </r>
       <r>   -7.5861    1.0000 </r>
       <r>   -3.1993    1.0000 </r>
       <r>   -3.0630    1.0000 </r>
       <r>   -1.1479    1.0000 </r>
       <r>    0.1034    1.0000 </r>
       <r>    0.5428    1.0000 </r>
       <r>    1.1392    1.0000 </r>
       <r>    1.3827    1.0000 </r>
       <r>    1.7684    1.0000 </r>
       <r>    2.2370    1.0000 </r>
       <r>    6.7407    0.0000 </r>
       <r>    7.6858    0.0000 </r>
       <r>    7.9774    0.0000 </r>
       <r>    8.1169    0.0000 </r>
       <r>    8.3001    0.0000 </r>
       <r>    9.2132    0.0000 </r>
       <r>    9.3131    0.0000 </r>
       <r>    9.4704    0.0000 </r>
       <r>   10.4855    0.0000 </r>
       <r>   10.5023    0.0000 </r>
       <r>   10.8540    0.0000 </r>
       <r>   11.0916    0.0000 </r>
       <r>   12.5609    0.0000 </r>
       <r>   12.9379    0.0000 </r>
       <r>   13.6437    0.0000 </r>
       <r>   13.7784    0.0000 </r>
       <r>   13.9726    0.0000 </r>
       <r>   14.2049    0.0000 </r>
       <r>   14.5728    0.0000 </r>
       <r>   14.7577    0.0000 </r>
       <r>   15.6623    0.0000 </r>
       <r>   16.2736    0.0000 </r>
       <r>   16.6509    0.0000 </r>
       <r>   17.1756    0.0000 </r>
       <r>   17.6210    0.0000 </r>
       <r>   17.7143    0.0000 </r>
       <r>   18.1812    0.0000 </r>
       <r>   18.6726    0.0000 </r>
      </set>
      <set comment="kpoint 8">
       <r> -102.0100    1.0000 </r>
       <r> -102.0095    1.0000 </r>
       <r> -102.0081    1.0000 </r>
       <r> -102.0075    1.0000 </r>
       <r>  -25.6040    1.0000 </r>
       <r>   -9.3684    1.0000 </r>
       <r>   -8.8575    1.0000 </r>
       <r>   -8.7530    1.0000 </r>
       <r>   -8.6735    1.0000 </r>
       <r>   -7.5559    1.0000 </r>
       <r>   -7.2405    1.0000 </r>
       <r>   -2.3804    1.0000 </r>
       <r>   -2.3145    1.0000 </r>
       <r>   -1.9516    1.0000 </r>
       <r>   -0.3969    1.0000 </r>
       <r>   -0.0799    1.0000 </r>
       <r>    0.5126    1.0000 </r>
       <r>    0.9183    1.0000 </r>
       <r>    1.6673    1.0000 </r>
       <r>    2.1329    1.0000 </r>
       <r>    6.9742    0.0000 </r>
       <r>    7.0583    0.0000 </r>
       <r>    7.0610    0.0000 </r>
       <r>    7.9621    0.0000 </r>
       <r>    9.4269    0.0000 </r>
       <r>    9.7189    0.0000 </r>
       <r>   10.1760    0.0000 </r>
       <r>   10.4601    0.0000 </r>
       <r>   11.1043    0.0000 </r>
       <r>   11.2750    0.0000 </r>
       <r>   11.4292    0.0000 </r>
       <r>   11.4431    0.0000 </r>
       <r>   11.8177    0.0000 </r>
       <r>   11.8212    0.0000 </r>
       <r>   12.2274    0.0000 </r>
       <r>   12.7671    0.0000 </r>
       <r>   13.5191    0.0000 </r>
       <r>   14.1235    0.0000 </r>
       <r>   14.8194    0.0000 </r>
       <r>   15.1807    0.0000 </r>
       <r>   16.1269    0.0000 </r>
       <r>   16.4424    0.0000 </r>
       <r>   16.9558    0.0000 </r>
       <r>   16.9988    0.0000 </r>
       <r>   17.5830    0.0000 </r>
       <r>   19.0260    0.0000 </r>
       <r>   19.2620    0.0000 </r>
       <r>   19.4077    0.0000 </r>
      </set>
      <set comment="kpoint 9">
       <r> -102.0094    1.0000 </r>
       <r> -102.0088    1.0000 </r>
       <r> -102.0087    1.0000 </r>
       <r> -102.0081    1.0000 </r>
       <r>  -25.5758    1.0000 </r>
       <r>   -9.1526    1.0000 </r>
       <r>   -8.7743    1.0000 </r>
       <r>   -8.7065    1.0000 </r>
       <r>   -8.5085    1.0000 </r>
       <r>   -7.3590    1.0000 </r>
       <r>   -7.3379    1.0000 </r>
       <r>   -2.8821    1.0000 </r>
       <r>   -2.7275    1.0000 </r>
       <r>   -1.8386    1.0000 </r>
       <r>   -0.5542    1.0000 </r>
       <r>   -0.2368    1.0000 </r>
       <r>    0.2895    1.0000 </r>
       <r>    0.4582    1.0000 </r>
       <r>    1.2831    1.0000 </r>
       <r>    1.5455    1.0000 </r>
       <r>    6.4647    0.0000 </r>
       <r>    6.5383    0.0000 </r>
       <r>    7.3599    0.0000 </r>
       <r>    7.3671    0.0000 </r>
       <r>    9.2258    0.0000 </r>
       <r>    9.5696    0.0000 </r>
       <r>    9.8683    0.0000 </r>
       <r>   10.0380    0.0000 </r>
       <r>   10.8846    0.0000 </r>
       <r>   11.7458    0.0000 </r>
       <r>   11.8667    0.0000 </r>
       <r>   12.0586    0.0000 </r>
       <r>   12.3503    0.0000 </r>
       <r>   12.3813    0.0000 </r>
       <r>   14.2401    0.0000 </r>
       <r>   14.5497    0.0000 </r>
       <r>   14.7368    0.0000 </r>
       <r>   15.0322    0.0000 </r>
       <r>   15.4597    0.0000 </r>
       <r>   15.6655    0.0000 </r>
       <r>   16.0545    0.0000 </r>
       <r>   16.7315    0.0000 </r>
       <r>   16.9086    0.0000 </r>
       <r>   17.1552    0.0000 </r>
       <r>   17.6626    0.0000 </r>
       <r>   18.1941    0.0000 </r>
       <r>   18.6127    0.0000 </r>
       <r>   18.8445    0.0000 </r>
      </set>
      <set comment="kpoint 10">
       <r> -102.0092    1.0000 </r>
       <r> -102.0089    1.0000 </r>
       <r> -102.0085    1.0000 </r>
       <r> -102.0083    1.0000 </r>
       <r>  -25.5481    1.0000 </r>
       <r>   -9.0341    1.0000 </r>
       <r>   -9.0054    1.0000 </r>
       <r>   -8.4364    1.0000 </r>
       <r>   -8.3318    1.0000 </r>
       <r>   -7.1717    1.0000 </r>
       <r>   -7.0406    1.0000 </r>
       <r>   -2.9960    1.0000 </r>
       <r>   -2.7868    1.0000 </r>
       <r>   -2.1468    1.0000 </r>
       <r>   -1.0319    1.0000 </r>
       <r>   -0.4633    1.0000 </r>
       <r>   -0.3833    1.0000 </r>
       <r>    0.1442    1.0000 </r>
       <r>    0.7099    1.0000 </r>
       <r>    1.4363    1.0000 </r>
       <r>    5.3704    0.0000 </r>
       <r>    6.5413    0.0000 </r>
       <r>    6.6084    0.0000 </r>
       <r>    6.6641    0.0000 </r>
       <r>    8.9468    0.0000 </r>
       <r>    9.8937    0.0000 </r>
       <r>   10.5444    0.0000 </r>
       <r>   10.6823    0.0000 </r>
       <r>   10.7042    0.0000 </r>
       <r>   11.0781    0.0000 </r>
       <r>   12.1581    0.0000 </r>
       <r>   13.3708    0.0000 </r>
       <r>   13.3834    0.0000 </r>
       <r>   14.0198    0.0000 </r>
       <r>   14.3356    0.0000 </r>
       <r>   15.1588    0.0000 </r>
       <r>   15.5343    0.0000 </r>
       <r>   16.1532    0.0000 </r>
       <r>   16.4208    0.0000 </r>
       <r>   16.6367    0.0000 </r>
       <r>   16.9012    0.0000 </r>
       <r>   17.1168    0.0000 </r>
       <r>   17.4028    0.0000 </r>
       <r>   17.7213    0.0000 </r>
       <r>   18.1521    0.0000 </r>
       <r>   18.2467    0.0000 </r>
       <r>   18.6545    0.0000 </r>
       <r>   19.9652    0.0000 </r>
      </set>
      <set comment="kpoint 11">
       <r> -102.0113    1.0000 </r>
       <r> -102.0111    1.0000 </r>
       <r> -102.0065    1.0000 </r>
       <r> -102.0060    1.0000 </r>
       <r>  -25.7064    1.0000 </r>
       <r>  -10.6608    1.0000 </r>
       <r>   -9.1865    1.0000 </r>
       <r>   -8.5232    1.0000 </r>
       <r>   -8.2608    1.0000 </r>
       <r>   -8.2608    1.0000 </r>
       <r>   -7.2051    1.0000 </r>
       <r>   -1.9697    1.0000 </r>
       <r>   -0.4118    1.0000 </r>
       <r>   -0.4118    1.0000 </r>
       <r>    1.2642    1.0000 </r>
       <r>    1.2970    1.0000 </r>
       <r>    1.2970    1.0000 </r>
       <r>    2.5859    1.0000 </r>
       <r>    3.5840    1.0000 </r>
       <r>    3.5840    1.0000 </r>
       <r>    5.2137    0.0000 </r>
       <r>    5.4846    0.0000 </r>
       <r>    7.1010    0.0000 </r>
       <r>    7.1271    0.0000 </r>
       <r>    7.6344    0.0000 </r>
       <r>    8.7789    0.0000 </r>
       <r>    8.7789    0.0000 </r>
       <r>    9.1021    0.0000 </r>
       <r>    9.7230    0.0000 </r>
       <r>    9.9788    0.0000 </r>
       <r>   11.2973    0.0000 </r>
       <r>   11.2973    0.0000 </r>
       <r>   12.5138    0.0000 </r>
       <r>   13.2067    0.0000 </r>
       <r>   13.2067    0.0000 </r>
       <r>   14.0125    0.0000 </r>
       <r>   14.0981    0.0000 </r>
       <r>   14.3152    0.0000 </r>
       <r>   14.5599    0.0000 </r>
       <r>   14.5599    0.0000 </r>
       <r>   14.7354    0.0000 </r>
       <r>   15.3288    0.0000 </r>
       <r>   15.3289    0.0000 </r>
       <r>   15.8820    0.0000 </r>
       <r>   16.5939    0.0000 </r>
       <r>   17.5142    0.0000 </r>
       <r>   17.7981    0.0000 </r>
       <r>   18.4531    0.0000 </r>
      </set>
      <set comment="kpoint 12">
       <r> -102.0111    1.0000 </r>
       <r> -102.0108    1.0000 </r>
       <r> -102.0067    1.0000 </r>
       <r> -102.0063    1.0000 </r>
       <r>  -25.6904    1.0000 </r>
       <r>  -10.4860    1.0000 </r>
       <r>   -9.0877    1.0000 </r>
       <r>   -8.6327    1.0000 </r>
       <r>   -8.2427    1.0000 </r>
       <r>   -8.2302    1.0000 </r>
       <r>   -7.2117    1.0000 </r>
       <r>   -1.9848    1.0000 </r>
       <r>   -1.4003    1.0000 </r>
       <r>   -0.2179    1.0000 </r>
       <r>    0.3090    1.0000 </r>
       <r>    1.4304    1.0000 </r>
       <r>    1.4621    1.0000 </r>
       <r>    2.4444    1.0000 </r>
       <r>    2.9278    1.0000 </r>
       <r>    3.5026    1.0000 </r>
       <r>    5.6156    0.0000 </r>
       <r>    6.6748    0.0000 </r>
       <r>    7.1155    0.0000 </r>
       <r>    7.9201    0.0000 </r>
       <r>    8.0176    0.0000 </r>
       <r>    8.3680    0.0000 </r>
       <r>    8.6079    0.0000 </r>
       <r>    9.7937    0.0000 </r>
       <r>   10.1905    0.0000 </r>
       <r>   10.5200    0.0000 </r>
       <r>   10.7206    0.0000 </r>
       <r>   11.1170    0.0000 </r>
       <r>   12.1989    0.0000 </r>
       <r>   12.4835    0.0000 </r>
       <r>   12.9823    0.0000 </r>
       <r>   13.0495    0.0000 </r>
       <r>   13.3567    0.0000 </r>
       <r>   14.0481    0.0000 </r>
       <r>   14.2740    0.0000 </r>
       <r>   14.4500    0.0000 </r>
       <r>   14.4656    0.0000 </r>
       <r>   15.5093    0.0000 </r>
       <r>   16.3638    0.0000 </r>
       <r>   16.8434    0.0000 </r>
       <r>   17.2099    0.0000 </r>
       <r>   17.4739    0.0000 </r>
       <r>   17.8042    0.0000 </r>
       <r>   18.2651    0.0000 </r>
      </set>
      <set comment="kpoint 13">
       <r> -102.0105    1.0000 </r>
       <r> -102.0101    1.0000 </r>
       <r> -102.0075    1.0000 </r>
       <r> -102.0069    1.0000 </r>
       <r>  -25.6543    1.0000 </r>
       <r>   -9.9920    1.0000 </r>
       <r>   -9.0610    1.0000 </r>
       <r>   -8.7924    1.0000 </r>
       <r>   -8.2017    1.0000 </r>
       <r>   -7.9548    1.0000 </r>
       <r>   -7.3591    1.0000 </r>
       <r>   -2.6957    1.0000 </r>
       <r>   -2.5580    1.0000 </r>
       <r>   -0.1813    1.0000 </r>
       <r>    0.1977    1.0000 </r>
       <r>    0.3386    1.0000 </r>
       <r>    1.8967    1.0000 </r>
       <r>    2.1340    1.0000 </r>
       <r>    2.5342    1.0000 </r>
       <r>    3.1382    1.0000 </r>
       <r>    6.0294    0.0000 </r>
       <r>    6.9795    0.0000 </r>
       <r>    7.9347    0.0000 </r>
       <r>    8.0712    0.0000 </r>
       <r>    8.1462    0.0000 </r>
       <r>    9.2749    0.0000 </r>
       <r>    9.7918    0.0000 </r>
       <r>    9.7922    0.0000 </r>
       <r>   10.1190    0.0000 </r>
       <r>   10.4948    0.0000 </r>
       <r>   11.0482    0.0000 </r>
       <r>   11.1027    0.0000 </r>
       <r>   11.9978    0.0000 </r>
       <r>   12.2455    0.0000 </r>
       <r>   12.4497    0.0000 </r>
       <r>   12.6886    0.0000 </r>
       <r>   13.1506    0.0000 </r>
       <r>   13.7697    0.0000 </r>
       <r>   14.0922    0.0000 </r>
       <r>   14.2518    0.0000 </r>
       <r>   14.6641    0.0000 </r>
       <r>   15.9710    0.0000 </r>
       <r>   16.3989    0.0000 </r>
       <r>   16.5668    0.0000 </r>
       <r>   16.8644    0.0000 </r>
       <r>   17.4411    0.0000 </r>
       <r>   17.8690    0.0000 </r>
       <r>   18.9838    0.0000 </r>
      </set>
      <set comment="kpoint 14">
       <r> -102.0095    1.0000 </r>
       <r> -102.0091    1.0000 </r>
       <r> -102.0085    1.0000 </r>
       <r> -102.0079    1.0000 </r>
       <r>  -25.6249    1.0000 </r>
       <r>   -9.3938    1.0000 </r>
       <r>   -9.2899    1.0000 </r>
       <r>   -8.6050    1.0000 </r>
       <r>   -8.1683    1.0000 </r>
       <r>   -7.8283    1.0000 </r>
       <r>   -7.6057    1.0000 </r>
       <r>   -3.4309    1.0000 </r>
       <r>   -3.1815    1.0000 </r>
       <r>   -1.0746    1.0000 </r>
       <r>    0.4359    1.0000 </r>
       <r>    1.1264    1.0000 </r>
       <r>    1.5599    1.0000 </r>
       <r>    2.2384    1.0000 </r>
       <r>    2.3467    1.0000 </r>
       <r>    2.4240    1.0000 </r>
       <r>    6.4433    0.0000 </r>
       <r>    7.1368    0.0000 </r>
       <r>    7.4324    0.0000 </r>
       <r>    8.2966    0.0000 </r>
       <r>    8.3875    0.0000 </r>
       <r>    8.4446    0.0000 </r>
       <r>    9.5080    0.0000 </r>
       <r>    9.6659    0.0000 </r>
       <r>   10.6645    0.0000 </r>
       <r>   10.6992    0.0000 </r>
       <r>   11.0017    0.0000 </r>
       <r>   11.1976    0.0000 </r>
       <r>   12.1228    0.0000 </r>
       <r>   12.4387    0.0000 </r>
       <r>   13.2915    0.0000 </r>
       <r>   13.3684    0.0000 </r>
       <r>   13.7618    0.0000 </r>
       <r>   14.0684    0.0000 </r>
       <r>   14.5395    0.0000 </r>
       <r>   14.9344    0.0000 </r>
       <r>   15.5506    0.0000 </r>
       <r>   15.9982    0.0000 </r>
       <r>   16.2952    0.0000 </r>
       <r>   17.0239    0.0000 </r>
       <r>   17.2290    0.0000 </r>
       <r>   17.3045    0.0000 </r>
       <r>   17.8530    0.0000 </r>
       <r>   18.2255    0.0000 </r>
      </set>
      <set comment="kpoint 15">
       <r> -102.0109    1.0000 </r>
       <r> -102.0106    1.0000 </r>
       <r> -102.0070    1.0000 </r>
       <r> -102.0065    1.0000 </r>
       <r>  -25.6747    1.0000 </r>
       <r>  -10.3131    1.0000 </r>
       <r>   -8.9959    1.0000 </r>
       <r>   -8.6442    1.0000 </r>
       <r>   -8.4180    1.0000 </r>
       <r>   -8.0969    1.0000 </r>
       <r>   -7.2056    1.0000 </r>
       <r>   -1.9933    1.0000 </r>
       <r>   -1.2683    1.0000 </r>
       <r>   -1.1660    1.0000 </r>
       <r>    0.3639    1.0000 </r>
       <r>    0.6776    1.0000 </r>
       <r>    1.5219    1.0000 </r>
       <r>    2.3039    1.0000 </r>
       <r>    2.5697    1.0000 </r>
       <r>    3.0965    1.0000 </r>
       <r>    6.8871    0.0000 </r>
       <r>    7.0338    0.0000 </r>
       <r>    7.4933    0.0000 </r>
       <r>    7.5615    0.0000 </r>
       <r>    8.4859    0.0000 </r>
       <r>    8.8176    0.0000 </r>
       <r>    9.3441    0.0000 </r>
       <r>    9.4584    0.0000 </r>
       <r>   10.2332    0.0000 </r>
       <r>   10.2766    0.0000 </r>
       <r>   10.4365    0.0000 </r>
       <r>   11.1258    0.0000 </r>
       <r>   11.3301    0.0000 </r>
       <r>   12.0934    0.0000 </r>
       <r>   12.5635    0.0000 </r>
       <r>   13.0787    0.0000 </r>
       <r>   13.4833    0.0000 </r>
       <r>   14.3024    0.0000 </r>
       <r>   14.6608    0.0000 </r>
       <r>   15.0489    0.0000 </r>
       <r>   15.2382    0.0000 </r>
       <r>   15.3874    0.0000 </r>
       <r>   15.4083    0.0000 </r>
       <r>   15.9016    0.0000 </r>
       <r>   17.4650    0.0000 </r>
       <r>   18.0043    0.0000 </r>
       <r>   18.5445    0.0000 </r>
       <r>   18.9059    0.0000 </r>
      </set>
      <set comment="kpoint 16">
       <r> -102.0104    1.0000 </r>
       <r> -102.0099    1.0000 </r>
       <r> -102.0076    1.0000 </r>
       <r> -102.0071    1.0000 </r>
       <r>  -25.6389    1.0000 </r>
       <r>   -9.8262    1.0000 </r>
       <r>   -9.0008    1.0000 </r>
       <r>   -8.7315    1.0000 </r>
       <r>   -8.4094    1.0000 </r>
       <r>   -7.8366    1.0000 </r>
       <r>   -7.3079    1.0000 </r>
       <r>   -2.5369    1.0000 </r>
       <r>   -2.4647    1.0000 </r>
       <r>   -0.7138    1.0000 </r>
       <r>   -0.0767    1.0000 </r>
       <r>    0.2937    1.0000 </r>
       <r>    0.9268    1.0000 </r>
       <r>    2.0708    1.0000 </r>
       <r>    2.1607    1.0000 </r>
       <r>    2.6062    1.0000 </r>
       <r>    7.1331    0.0000 </r>
       <r>    7.3458    0.0000 </r>
       <r>    7.4669    0.0000 </r>
       <r>    8.5660    0.0000 </r>
       <r>    8.8886    0.0000 </r>
       <r>    9.1918    0.0000 </r>
       <r>    9.5644    0.0000 </r>
       <r>    9.8161    0.0000 </r>
       <r>    9.9233    0.0000 </r>
       <r>   10.3905    0.0000 </r>
       <r>   10.7341    0.0000 </r>
       <r>   11.1388    0.0000 </r>
       <r>   11.6458    0.0000 </r>
       <r>   12.2373    0.0000 </r>
       <r>   12.6053    0.0000 </r>
       <r>   12.9150    0.0000 </r>
       <r>   13.7606    0.0000 </r>
       <r>   14.1603    0.0000 </r>
       <r>   14.3735    0.0000 </r>
       <r>   14.6242    0.0000 </r>
       <r>   15.0066    0.0000 </r>
       <r>   15.3009    0.0000 </r>
       <r>   16.2781    0.0000 </r>
       <r>   16.9262    0.0000 </r>
       <r>   17.2106    0.0000 </r>
       <r>   18.0804    0.0000 </r>
       <r>   18.5257    0.0000 </r>
       <r>   19.0894    0.0000 </r>
      </set>
      <set comment="kpoint 17">
       <r> -102.0095    1.0000 </r>
       <r> -102.0090    1.0000 </r>
       <r> -102.0085    1.0000 </r>
       <r> -102.0080    1.0000 </r>
       <r>  -25.6099    1.0000 </r>
       <r>   -9.3051    1.0000 </r>
       <r>   -9.1658    1.0000 </r>
       <r>   -8.5655    1.0000 </r>
       <r>   -8.3507    1.0000 </r>
       <r>   -7.7109    1.0000 </r>
       <r>   -7.5136    1.0000 </r>
       <r>   -3.2538    1.0000 </r>
       <r>   -3.0638    1.0000 </r>
       <r>   -1.0474    1.0000 </r>
       <r>    0.1179    1.0000 </r>
       <r>    0.4526    1.0000 </r>
       <r>    1.1965    1.0000 </r>
       <r>    1.3320    1.0000 </r>
       <r>    1.6696    1.0000 </r>
       <r>    2.4194    1.0000 </r>
       <r>    6.5994    0.0000 </r>
       <r>    7.5439    0.0000 </r>
       <r>    7.8943    0.0000 </r>
       <r>    8.0902    0.0000 </r>
       <r>    8.3616    0.0000 </r>
       <r>    9.0724    0.0000 </r>
       <r>    9.4813    0.0000 </r>
       <r>    9.6320    0.0000 </r>
       <r>   10.4565    0.0000 </r>
       <r>   10.6610    0.0000 </r>
       <r>   10.9851    0.0000 </r>
       <r>   11.4566    0.0000 </r>
       <r>   12.3379    0.0000 </r>
       <r>   12.7111    0.0000 </r>
       <r>   13.1985    0.0000 </r>
       <r>   13.7840    0.0000 </r>
       <r>   13.8098    0.0000 </r>
       <r>   14.1633    0.0000 </r>
       <r>   14.6565    0.0000 </r>
       <r>   15.1082    0.0000 </r>
       <r>   15.6600    0.0000 </r>
       <r>   16.5805    0.0000 </r>
       <r>   17.2657    0.0000 </r>
       <r>   17.4050    0.0000 </r>
       <r>   17.5381    0.0000 </r>
       <r>   17.6379    0.0000 </r>
       <r>   17.9642    0.0000 </r>
       <r>   18.7128    0.0000 </r>
      </set>
      <set comment="kpoint 18">
       <r> -102.0100    1.0000 </r>
       <r> -102.0094    1.0000 </r>
       <r> -102.0081    1.0000 </r>
       <r> -102.0075    1.0000 </r>
       <r>  -25.6040    1.0000 </r>
       <r>   -9.3675    1.0000 </r>
       <r>   -8.9210    1.0000 </r>
       <r>   -8.7529    1.0000 </r>
       <r>   -8.5883    1.0000 </r>
       <r>   -7.5690    1.0000 </r>
       <r>   -7.2542    1.0000 </r>
       <r>   -2.4046    1.0000 </r>
       <r>   -2.3250    1.0000 </r>
       <r>   -1.9174    1.0000 </r>
       <r>   -0.3280    1.0000 </r>
       <r>   -0.0010    1.0000 </r>
       <r>    0.3930    1.0000 </r>
       <r>    0.8346    1.0000 </r>
       <r>    1.7968    1.0000 </r>
       <r>    2.0332    1.0000 </r>
       <r>    6.8141    0.0000 </r>
       <r>    7.1503    0.0000 </r>
       <r>    7.4607    0.0000 </r>
       <r>    7.9848    0.0000 </r>
       <r>    9.2568    0.0000 </r>
       <r>    9.5274    0.0000 </r>
       <r>   10.0107    0.0000 </r>
       <r>   10.3451    0.0000 </r>
       <r>   10.6727    0.0000 </r>
       <r>   11.1028    0.0000 </r>
       <r>   11.1490    0.0000 </r>
       <r>   11.7585    0.0000 </r>
       <r>   11.8915    0.0000 </r>
       <r>   12.1078    0.0000 </r>
       <r>   12.6719    0.0000 </r>
       <r>   12.9878    0.0000 </r>
       <r>   13.8853    0.0000 </r>
       <r>   14.3193    0.0000 </r>
       <r>   15.0549    0.0000 </r>
       <r>   15.1971    0.0000 </r>
       <r>   15.5265    0.0000 </r>
       <r>   15.9679    0.0000 </r>
       <r>   16.9534    0.0000 </r>
       <r>   17.0525    0.0000 </r>
       <r>   17.7279    0.0000 </r>
       <r>   18.5434    0.0000 </r>
       <r>   18.9690    0.0000 </r>
       <r>   19.6495    0.0000 </r>
      </set>
      <set comment="kpoint 19">
       <r> -102.0094    1.0000 </r>
       <r> -102.0088    1.0000 </r>
       <r> -102.0087    1.0000 </r>
       <r> -102.0081    1.0000 </r>
       <r>  -25.5758    1.0000 </r>
       <r>   -9.1452    1.0000 </r>
       <r>   -8.7912    1.0000 </r>
       <r>   -8.7280    1.0000 </r>
       <r>   -8.4725    1.0000 </r>
       <r>   -7.4171    1.0000 </r>
       <r>   -7.2809    1.0000 </r>
       <r>   -2.8713    1.0000 </r>
       <r>   -2.7577    1.0000 </r>
       <r>   -1.8429    1.0000 </r>
       <r>   -0.5244    1.0000 </r>
       <r>   -0.1921    1.0000 </r>
       <r>    0.2031    1.0000 </r>
       <r>    0.4986    1.0000 </r>
       <r>    1.0302    1.0000 </r>
       <r>    1.8620    1.0000 </r>
       <r>    6.2619    0.0000 </r>
       <r>    6.6329    0.0000 </r>
       <r>    7.0465    0.0000 </r>
       <r>    7.5763    0.0000 </r>
       <r>    9.1972    0.0000 </r>
       <r>    9.7181    0.0000 </r>
       <r>    9.8489    0.0000 </r>
       <r>   10.5569    0.0000 </r>
       <r>   10.8928    0.0000 </r>
       <r>   11.1438    0.0000 </r>
       <r>   11.5465    0.0000 </r>
       <r>   12.2338    0.0000 </r>
       <r>   12.3731    0.0000 </r>
       <r>   12.6824    0.0000 </r>
       <r>   13.9273    0.0000 </r>
       <r>   14.2156    0.0000 </r>
       <r>   14.9288    0.0000 </r>
       <r>   15.1971    0.0000 </r>
       <r>   15.3999    0.0000 </r>
       <r>   15.6770    0.0000 </r>
       <r>   16.1128    0.0000 </r>
       <r>   16.7566    0.0000 </r>
       <r>   17.3725    0.0000 </r>
       <r>   17.7397    0.0000 </r>
       <r>   17.8872    0.0000 </r>
       <r>   18.1182    0.0000 </r>
       <r>   18.7356    0.0000 </r>
       <r>   18.9863    0.0000 </r>
      </set>
      <set comment="kpoint 20">
       <r> -102.0092    1.0000 </r>
       <r> -102.0090    1.0000 </r>
       <r> -102.0085    1.0000 </r>
       <r> -102.0083    1.0000 </r>
       <r>  -25.5481    1.0000 </r>
       <r>   -9.0332    1.0000 </r>
       <r>   -9.0054    1.0000 </r>
       <r>   -8.4660    1.0000 </r>
       <r>   -8.3004    1.0000 </r>
       <r>   -7.1688    1.0000 </r>
       <r>   -7.0459    1.0000 </r>
       <r>   -3.0081    1.0000 </r>
       <r>   -2.7823    1.0000 </r>
       <r>   -2.1587    1.0000 </r>
       <r>   -0.9408    1.0000 </r>
       <r>   -0.4669    1.0000 </r>
       <r>   -0.3581    1.0000 </r>
       <r>    0.0364    1.0000 </r>
       <r>    0.8232    1.0000 </r>
       <r>    1.2334    1.0000 </r>
       <r>    5.5366    0.0000 </r>
       <r>    6.5045    0.0000 </r>
       <r>    6.7966    0.0000 </r>
       <r>    7.2843    0.0000 </r>
       <r>    8.5968    0.0000 </r>
       <r>    8.9361    0.0000 </r>
       <r>    9.4137    0.0000 </r>
       <r>   10.1364    0.0000 </r>
       <r>   11.3602    0.0000 </r>
       <r>   11.9487    0.0000 </r>
       <r>   13.1732    0.0000 </r>
       <r>   13.3809    0.0000 </r>
       <r>   14.0203    0.0000 </r>
       <r>   14.3295    0.0000 </r>
       <r>   14.5922    0.0000 </r>
       <r>   14.9499    0.0000 </r>
       <r>   15.2360    0.0000 </r>
       <r>   15.6724    0.0000 </r>
       <r>   16.1263    0.0000 </r>
       <r>   16.5020    0.0000 </r>
       <r>   16.6607    0.0000 </r>
       <r>   17.0273    0.0000 </r>
       <r>   17.2643    0.0000 </r>
       <r>   17.7846    0.0000 </r>
       <r>   17.9358    0.0000 </r>
       <r>   18.6922    0.0000 </r>
       <r>   18.8182    0.0000 </r>
       <r>   19.5906    0.0000 </r>
      </set>
     </set>
    </set>
   </array>
  </eigenvalues>
  <separator name="orbital magnetization" >
   <v name="MAGDIPOLOUT">      0.00000000      0.00000000      0.00000000</v>
  </separator>
  <dos>
   <i name="efermi">      3.81349768 </i>
   <total>
    <array>
     <dimension dim="1">gridpoints</dimension>
     <dimension dim="2">spin</dimension>
     <field>energy</field>
     <field>total</field>
     <field>integrated</field>
     <set>
      <set comment="spin 1">
       <r>  -108.1102     0.0000     0.0000 </r>
       <r>  -107.6630     0.0000     0.0000 </r>
       <r>  -107.2157     0.0000     0.0000 </r>
       <r>  -106.7685     0.0000     0.0000 </r>
       <r>  -106.3212     0.0000     0.0000 </r>
       <r>  -105.8740     0.0000     0.0000 </r>
       <r>  -105.4267     0.0000     0.0000 </r>
       <r>  -104.9795     0.0000     0.0000 </r>
       <r>  -104.5322     0.0000     0.0000 </r>
       <r>  -104.0850     0.0000     0.0000 </r>
       <r>  -103.6377     0.0000     0.0000 </r>
       <r>  -103.1905     0.0000     0.0000 </r>
       <r>  -102.7432     0.0000     0.0000 </r>
       <r>  -102.2960     0.0000     0.0000 </r>
       <r>  -101.8487     0.0000     8.0000 </r>
       <r>  -101.4015     0.0000     8.0000 </r>
       <r>  -100.9542     0.0000     8.0000 </r>
       <r>  -100.5070     0.0000     8.0000 </r>
       <r>  -100.0597     0.0000     8.0000 </r>
       <r>   -99.6125     0.0000     8.0000 </r>
       <r>   -99.1653     0.0000     8.0000 </r>
       <r>   -98.7180     0.0000     8.0000 </r>
       <r>   -98.2708     0.0000     8.0000 </r>
       <r>   -97.8235     0.0000     8.0000 </r>
       <r>   -97.3763     0.0000     8.0000 </r>
       <r>   -96.9290     0.0000     8.0000 </r>
       <r>   -96.4818     0.0000     8.0000 </r>
       <r>   -96.0345     0.0000     8.0000 </r>
       <r>   -95.5873     0.0000     8.0000 </r>
       <r>   -95.1400     0.0000     8.0000 </r>
       <r>   -94.6928     0.0000     8.0000 </r>
       <r>   -94.2455     0.0000     8.0000 </r>
       <r>   -93.7983     0.0000     8.0000 </r>
       <r>   -93.3510     0.0000     8.0000 </r>
       <r>   -92.9038     0.0000     8.0000 </r>
       <r>   -92.4565     0.0000     8.0000 </r>
       <r>   -92.0093     0.0000     8.0000 </r>
       <r>   -91.5620     0.0000     8.0000 </r>
       <r>   -91.1148     0.0000     8.0000 </r>
       <r>   -90.6675     0.0000     8.0000 </r>
       <r>   -90.2203     0.0000     8.0000 </r>
       <r>   -89.7731     0.0000     8.0000 </r>
       <r>   -89.3258     0.0000     8.0000 </r>
       <r>   -88.8786     0.0000     8.0000 </r>
       <r>   -88.4313     0.0000     8.0000 </r>
       <r>   -87.9841     0.0000     8.0000 </r>
       <r>   -87.5368     0.0000     8.0000 </r>
       <r>   -87.0896     0.0000     8.0000 </r>
       <r>   -86.6423     0.0000     8.0000 </r>
       <r>   -86.1951     0.0000     8.0000 </r>
       <r>   -85.7478     0.0000     8.0000 </r>
       <r>   -85.3006     0.0000     8.0000 </r>
       <r>   -84.8533     0.0000     8.0000 </r>
       <r>   -84.4061     0.0000     8.0000 </r>
       <r>   -83.9588     0.0000     8.0000 </r>
       <r>   -83.5116     0.0000     8.0000 </r>
       <r>   -83.0643     0.0000     8.0000 </r>
       <r>   -82.6171     0.0000     8.0000 </r>
       <r>   -82.1698     0.0000     8.0000 </r>
       <r>   -81.7226     0.0000     8.0000 </r>
       <r>   -81.2753     0.0000     8.0000 </r>
       <r>   -80.8281     0.0000     8.0000 </r>
       <r>   -80.3809     0.0000     8.0000 </r>
       <r>   -79.9336     0.0000     8.0000 </r>
       <r>   -79.4864     0.0000     8.0000 </r>
       <r>   -79.0391     0.0000     8.0000 </r>
       <r>   -78.5919     0.0000     8.0000 </r>
       <r>   -78.1446     0.0000     8.0000 </r>
       <r>   -77.6974     0.0000     8.0000 </r>
       <r>   -77.2501     0.0000     8.0000 </r>
       <r>   -76.8029     0.0000     8.0000 </r>
       <r>   -76.3556     0.0000     8.0000 </r>
       <r>   -75.9084     0.0000     8.0000 </r>
       <r>   -75.4611     0.0000     8.0000 </r>
       <r>   -75.0139     0.0000     8.0000 </r>
       <r>   -74.5666     0.0000     8.0000 </r>
       <r>   -74.1194     0.0000     8.0000 </r>
       <r>   -73.6721     0.0000     8.0000 </r>
       <r>   -73.2249     0.0000     8.0000 </r>
       <r>   -72.7776     0.0000     8.0000 </r>
       <r>   -72.3304     0.0000     8.0000 </r>
       <r>   -71.8832     0.0000     8.0000 </r>
       <r>   -71.4359     0.0000     8.0000 </r>
       <r>   -70.9887     0.0000     8.0000 </r>
       <r>   -70.5414     0.0000     8.0000 </r>
       <r>   -70.0942     0.0000     8.0000 </r>
       <r>   -69.6469     0.0000     8.0000 </r>
       <r>   -69.1997     0.0000     8.0000 </r>
       <r>   -68.7524     0.0000     8.0000 </r>
       <r>   -68.3052     0.0000     8.0000 </r>
       <r>   -67.8579     0.0000     8.0000 </r>
       <r>   -67.4107     0.0000     8.0000 </r>
       <r>   -66.9634     0.0000     8.0000 </r>
       <r>   -66.5162     0.0000     8.0000 </r>
       <r>   -66.0689     0.0000     8.0000 </r>
       <r>   -65.6217     0.0000     8.0000 </r>
       <r>   -65.1744     0.0000     8.0000 </r>
       <r>   -64.7272     0.0000     8.0000 </r>
       <r>   -64.2799     0.0000     8.0000 </r>
       <r>   -63.8327     0.0000     8.0000 </r>
       <r>   -63.3854     0.0000     8.0000 </r>
       <r>   -62.9382     0.0000     8.0000 </r>
       <r>   -62.4910     0.0000     8.0000 </r>
       <r>   -62.0437     0.0000     8.0000 </r>
       <r>   -61.5965     0.0000     8.0000 </r>
       <r>   -61.1492     0.0000     8.0000 </r>
       <r>   -60.7020     0.0000     8.0000 </r>
       <r>   -60.2547     0.0000     8.0000 </r>
       <r>   -59.8075     0.0000     8.0000 </r>
       <r>   -59.3602     0.0000     8.0000 </r>
       <r>   -58.9130     0.0000     8.0000 </r>
       <r>   -58.4657     0.0000     8.0000 </r>
       <r>   -58.0185     0.0000     8.0000 </r>
       <r>   -57.5712     0.0000     8.0000 </r>
       <r>   -57.1240     0.0000     8.0000 </r>
       <r>   -56.6767     0.0000     8.0000 </r>
       <r>   -56.2295     0.0000     8.0000 </r>
       <r>   -55.7822     0.0000     8.0000 </r>
       <r>   -55.3350     0.0000     8.0000 </r>
       <r>   -54.8877     0.0000     8.0000 </r>
       <r>   -54.4405     0.0000     8.0000 </r>
       <r>   -53.9932     0.0000     8.0000 </r>
       <r>   -53.5460     0.0000     8.0000 </r>
       <r>   -53.0988     0.0000     8.0000 </r>
       <r>   -52.6515     0.0000     8.0000 </r>
       <r>   -52.2043     0.0000     8.0000 </r>
       <r>   -51.7570     0.0000     8.0000 </r>
       <r>   -51.3098     0.0000     8.0000 </r>
       <r>   -50.8625     0.0000     8.0000 </r>
       <r>   -50.4153     0.0000     8.0000 </r>
       <r>   -49.9680     0.0000     8.0000 </r>
       <r>   -49.5208     0.0000     8.0000 </r>
       <r>   -49.0735     0.0000     8.0000 </r>
       <r>   -48.6263     0.0000     8.0000 </r>
       <r>   -48.1790     0.0000     8.0000 </r>
       <r>   -47.7318     0.0000     8.0000 </r>
       <r>   -47.2845     0.0000     8.0000 </r>
       <r>   -46.8373     0.0000     8.0000 </r>
       <r>   -46.3900     0.0000     8.0000 </r>
       <r>   -45.9428     0.0000     8.0000 </r>
       <r>   -45.4955     0.0000     8.0000 </r>
       <r>   -45.0483     0.0000     8.0000 </r>
       <r>   -44.6011     0.0000     8.0000 </r>
       <r>   -44.1538     0.0000     8.0000 </r>
       <r>   -43.7066     0.0000     8.0000 </r>
       <r>   -43.2593     0.0000     8.0000 </r>
       <r>   -42.8121     0.0000     8.0000 </r>
       <r>   -42.3648     0.0000     8.0000 </r>
       <r>   -41.9176     0.0000     8.0000 </r>
       <r>   -41.4703     0.0000     8.0000 </r>
       <r>   -41.0231     0.0000     8.0000 </r>
       <r>   -40.5758     0.0000     8.0000 </r>
       <r>   -40.1286     0.0000     8.0000 </r>
       <r>   -39.6813     0.0000     8.0000 </r>
       <r>   -39.2341     0.0000     8.0000 </r>
       <r>   -38.7868     0.0000     8.0000 </r>
       <r>   -38.3396     0.0000     8.0000 </r>
       <r>   -37.8923     0.0000     8.0000 </r>
       <r>   -37.4451     0.0000     8.0000 </r>
       <r>   -36.9978     0.0000     8.0000 </r>
       <r>   -36.5506     0.0000     8.0000 </r>
       <r>   -36.1033     0.0000     8.0000 </r>
       <r>   -35.6561     0.0000     8.0000 </r>
       <r>   -35.2089     0.0000     8.0000 </r>
       <r>   -34.7616     0.0000     8.0000 </r>
       <r>   -34.3144     0.0000     8.0000 </r>
       <r>   -33.8671     0.0000     8.0000 </r>
       <r>   -33.4199     0.0000     8.0000 </r>
       <r>   -32.9726     0.0000     8.0000 </r>
       <r>   -32.5254     0.0000     8.0000 </r>
       <r>   -32.0781     0.0000     8.0000 </r>
       <r>   -31.6309     0.0000     8.0000 </r>
       <r>   -31.1836     0.0000     8.0000 </r>
       <r>   -30.7364     0.0000     8.0000 </r>
       <r>   -30.2891     0.0000     8.0000 </r>
       <r>   -29.8419     0.0000     8.0000 </r>
       <r>   -29.3946     0.0000     8.0000 </r>
       <r>   -28.9474     0.0000     8.0000 </r>
       <r>   -28.5001     0.0000     8.0000 </r>
       <r>   -28.0529     0.0000     8.0000 </r>
       <r>   -27.6056     0.0000     8.0000 </r>
       <r>   -27.1584     0.0000     8.0000 </r>
       <r>   -26.7111     0.0000     8.0000 </r>
       <r>   -26.2639     0.0000     8.0000 </r>
       <r>   -25.8167     0.0000     8.0000 </r>
       <r>   -25.3694     0.0000    10.0000 </r>
       <r>   -24.9222     0.0000    10.0000 </r>
       <r>   -24.4749     0.0000    10.0000 </r>
       <r>   -24.0277     0.0000    10.0000 </r>
       <r>   -23.5804     0.0000    10.0000 </r>
       <r>   -23.1332     0.0000    10.0000 </r>
       <r>   -22.6859     0.0000    10.0000 </r>
       <r>   -22.2387     0.0000    10.0000 </r>
       <r>   -21.7914     0.0000    10.0000 </r>
       <r>   -21.3442     0.0000    10.0000 </r>
       <r>   -20.8969     0.0000    10.0000 </r>
       <r>   -20.4497     0.0000    10.0000 </r>
       <r>   -20.0024     0.0000    10.0000 </r>
       <r>   -19.5552     0.0000    10.0000 </r>
       <r>   -19.1079     0.0000    10.0000 </r>
       <r>   -18.6607     0.0000    10.0000 </r>
       <r>   -18.2134     0.0000    10.0000 </r>
       <r>   -17.7662     0.0000    10.0000 </r>
       <r>   -17.3189     0.0000    10.0000 </r>
       <r>   -16.8717     0.0000    10.0000 </r>
       <r>   -16.4245     0.0000    10.0000 </r>
       <r>   -15.9772     0.0000    10.0000 </r>
       <r>   -15.5300     0.0000    10.0000 </r>
       <r>   -15.0827     0.0000    10.0000 </r>
       <r>   -14.6355     0.0000    10.0000 </r>
       <r>   -14.1882     0.0000    10.0000 </r>
       <r>   -13.7410     0.0000    10.0000 </r>
       <r>   -13.2937     0.0000    10.0000 </r>
       <r>   -12.8465     0.0000    10.0000 </r>
       <r>   -12.3992     0.0000    10.0000 </r>
       <r>   -11.9520     0.0000    10.0000 </r>
       <r>   -11.5047     0.0000    10.0000 </r>
       <r>   -11.0575     0.0000    10.0000 </r>
       <r>   -10.6102     0.0911    10.0407 </r>
       <r>   -10.1630     0.0000    10.3673 </r>
       <r>    -9.7157     0.0000    10.8571 </r>
       <r>    -9.2685     1.0948    11.6869 </r>
       <r>    -8.8212     0.3651    13.8367 </r>
       <r>    -8.3740     1.2171    16.9661 </r>
       <r>    -7.9268     0.2535    18.3583 </r>
       <r>    -7.4795     0.7300    20.0680 </r>
       <r>    -7.0323     0.3438    21.9905 </r>
       <r>    -6.5850     0.0000    22.0000 </r>
       <r>    -6.1378     0.0000    22.0000 </r>
       <r>    -5.6905     0.0000    22.0000 </r>
       <r>    -5.2433     0.0000    22.0000 </r>
       <r>    -4.7960     0.0000    22.0000 </r>
       <r>    -4.3488     0.0000    22.0000 </r>
       <r>    -3.9015     0.0000    22.0000 </r>
       <r>    -3.4543     0.0001    22.0001 </r>
       <r>    -3.0070     0.8740    23.0439 </r>
       <r>    -2.5598     0.4620    24.3291 </r>
       <r>    -2.1125     0.3650    25.4286 </r>
       <r>    -1.6653     0.0304    26.2857 </r>
       <r>    -1.2180     0.3322    26.6520 </r>
       <r>    -0.7708     0.0000    27.4286 </r>
       <r>    -0.3235     0.6663    28.6245 </r>
       <r>     0.1237     0.9355    30.1599 </r>
       <r>     0.5710     0.9734    32.5170 </r>
       <r>     1.0182     0.0229    33.4116 </r>
       <r>     1.4654     0.6526    35.1626 </r>
       <r>     1.9127     1.0824    36.6065 </r>
       <r>     2.3599     0.8613    38.0859 </r>
       <r>     2.8072     0.0000    39.2517 </r>
       <r>     3.2544     0.1521    39.7007 </r>
       <r>     3.7017     0.0608    40.0000 </r>
       <r>     4.1489     0.0000    40.0000 </r>
       <r>     4.5962     0.0000    40.0000 </r>
       <r>     5.0434     0.0000    40.0000 </r>
       <r>     5.4907     0.1146    40.1601 </r>
       <r>     5.9379     0.0085    40.4120 </r>
       <r>     6.3852     0.0000    40.7891 </r>
       <r>     6.8324     0.4857    42.3669 </r>
       <r>     7.2797     0.0621    43.8781 </r>
       <r>     7.7269     0.2844    45.9776 </r>
       <r>     8.1742     0.5042    47.8854 </r>
       <r>     8.6214     1.1227    49.6450 </r>
       <r>     9.0687     0.1443    50.4863 </r>
       <r>     9.5159     1.3126    52.9000 </r>
       <r>     9.9632     0.8526    55.4561 </r>
       <r>    10.4104     0.9044    56.9759 </r>
       <r>    10.8576     0.6562    59.3683 </r>
       <r>    11.3049     0.4694    62.0059 </r>
       <r>    11.7521     0.5105    63.6024 </r>
       <r>    12.1994     0.6964    65.1822 </r>
       <r>    12.6466     0.7301    67.7007 </r>
       <r>    13.0939     0.6046    69.3316 </r>
       <r>    13.5411     0.3650    70.8027 </r>
       <r>    13.9884     0.7579    72.7472 </r>
       <r>    14.4356     0.6702    75.5922 </r>
       <r>    14.8829     0.1217    77.4150 </r>
       <r>    15.3301     0.5867    79.8134 </r>
       <r>    15.7774     0.4936    81.9622 </r>
       <r>    16.2246     0.1426    83.2203 </r>
       <r>    16.6719     0.6554    84.8782 </r>
       <r>    17.1191     0.4969    86.5760 </r>
       <r>    17.5664     0.7132    89.2306 </r>
       <r>    18.0136     1.0720    91.6223 </r>
       <r>    18.4609     0.0830    92.8398 </r>
       <r>    18.9081     0.7364    94.8600 </r>
       <r>    19.3554     0.0000    95.6735 </r>
       <r>    19.8026     0.0000    95.9456 </r>
       <r>    20.2498     0.0000    96.0000 </r>
       <r>    20.6971     0.0000    96.0000 </r>
       <r>    21.1443     0.0000    96.0000 </r>
       <r>    21.5916     0.0000    96.0000 </r>
       <r>    22.0388     0.0000    96.0000 </r>
       <r>    22.4861     0.0000    96.0000 </r>
       <r>    22.9333     0.0000    96.0000 </r>
       <r>    23.3806     0.0000    96.0000 </r>
       <r>    23.8278     0.0000    96.0000 </r>
       <r>    24.2751     0.0000    96.0000 </r>
       <r>    24.7223     0.0000    96.0000 </r>
       <r>    25.1696     0.0000    96.0000 </r>
       <r>    25.6168     0.0000    96.0000 </r>
       <r>    26.0641     0.0000    96.0000 </r>
      </set>
     </set>
    </array>
   </total>
  </dos>
 </calculation>
 <structure name="finalpos" >
  <crystal>
   <varray name="basis" >
    <v>       3.64446899       0.00000000      -0.00000000 </v>
    <v>       0.00000000       3.64446899       0.00000000 </v>
    <v>       0.00000000       0.00000000       9.78381861 </v>
   </varray>
   <i name="volume">    129.95018760 </i>
   <varray name="rec_basis" >
    <v>       0.27438840       0.00000000       0.00000000 </v>
    <v>      -0.00000000       0.27438840       0.00000000 </v>
    <v>       0.00000000      -0.00000000       0.10220958 </v>
   </varray>
  </crystal>
  <varray name="positions" >
   <v>       0.00000000       0.00000000       0.50000000 </v>
   <v>       0.00000000       0.50000000       0.14297177 </v>
   <v>       0.00000000       0.50000000       0.85702823 </v>
   <v>       0.50000000       0.00000000       0.85702823 </v>
   <v>       0.50000000       0.00000000       0.14297177 </v>
   <v>       0.00000000       0.00000000       0.00000000 </v>
   <v>       0.50000000       0.50000000       0.26060231 </v>
   <v>       0.50000000       0.50000000       0.73939769 </v>
  </varray>
 </structure>
</modeling>
