   8   8   0   0
  0.1624377E+02  0.3644469E-09  0.3644469E-09  0.9783819E-09  0.5000000E-15
   1.0000000000000000E-004
  CAR 
 Be4P3Rb                                 
     26.04070857   -108.10909036  301      3.79420025      1.00000000
   -108.109  0.0000E+00  0.0000E+00
   -107.662  0.0000E+00  0.0000E+00
   -107.215  0.0000E+00  0.0000E+00
   -106.768  0.0000E+00  0.0000E+00
   -106.320  0.0000E+00  0.0000E+00
   -105.873  0.0000E+00  0.0000E+00
   -105.426  0.0000E+00  0.0000E+00
   -104.979  0.0000E+00  0.0000E+00
   -104.532  0.0000E+00  0.0000E+00
   -104.085  0.0000E+00  0.0000E+00
   -103.637  0.0000E+00  0.0000E+00
   -103.190  0.0000E+00  0.0000E+00
   -102.743  0.0000E+00  0.0000E+00
   -102.296  0.0000E+00  0.0000E+00
   -101.849  0.0000E+00  0.8000E+01
   -101.402  0.0000E+00  0.8000E+01
   -100.954  0.0000E+00  0.8000E+01
   -100.507  0.0000E+00  0.8000E+01
   -100.060  0.0000E+00  0.8000E+01
    -99.613  0.0000E+00  0.8000E+01
    -99.166  0.0000E+00  0.8000E+01
    -98.719  0.0000E+00  0.8000E+01
    -98.271  0.0000E+00  0.8000E+01
    -97.824  0.0000E+00  0.8000E+01
    -97.377  0.0000E+00  0.8000E+01
    -96.930  0.0000E+00  0.8000E+01
    -96.483  0.0000E+00  0.8000E+01
    -96.036  0.0000E+00  0.8000E+01
    -95.588  0.0000E+00  0.8000E+01
    -95.141  0.0000E+00  0.8000E+01
    -94.694  0.0000E+00  0.8000E+01
    -94.247  0.0000E+00  0.8000E+01
    -93.800  0.0000E+00  0.8000E+01
    -93.353  0.0000E+00  0.8000E+01
    -92.905  0.0000E+00  0.8000E+01
    -92.458  0.0000E+00  0.8000E+01
    -92.011  0.0000E+00  0.8000E+01
    -91.564  0.0000E+00  0.8000E+01
    -91.117  0.0000E+00  0.8000E+01
    -90.670  0.0000E+00  0.8000E+01
    -90.222  0.0000E+00  0.8000E+01
    -89.775  0.0000E+00  0.8000E+01
    -89.328  0.0000E+00  0.8000E+01
    -88.881  0.0000E+00  0.8000E+01
    -88.434  0.0000E+00  0.8000E+01
    -87.987  0.0000E+00  0.8000E+01
    -87.539  0.0000E+00  0.8000E+01
    -87.092  0.0000E+00  0.8000E+01
    -86.645  0.0000E+00  0.8000E+01
    -86.198  0.0000E+00  0.8000E+01
    -85.751  0.0000E+00  0.8000E+01
    -85.304  0.0000E+00  0.8000E+01
    -84.856  0.0000E+00  0.8000E+01
    -84.409  0.0000E+00  0.8000E+01
    -83.962  0.0000E+00  0.8000E+01
    -83.515  0.0000E+00  0.8000E+01
    -83.068  0.0000E+00  0.8000E+01
    -82.621  0.0000E+00  0.8000E+01
    -82.173  0.0000E+00  0.8000E+01
    -81.726  0.0000E+00  0.8000E+01
    -81.279  0.0000E+00  0.8000E+01
    -80.832  0.0000E+00  0.8000E+01
    -80.385  0.0000E+00  0.8000E+01
    -79.938  0.0000E+00  0.8000E+01
    -79.490  0.0000E+00  0.8000E+01
    -79.043  0.0000E+00  0.8000E+01
    -78.596  0.0000E+00  0.8000E+01
    -78.149  0.0000E+00  0.8000E+01
    -77.702  0.0000E+00  0.8000E+01
    -77.255  0.0000E+00  0.8000E+01
    -76.807  0.0000E+00  0.8000E+01
    -76.360  0.0000E+00  0.8000E+01
    -75.913  0.0000E+00  0.8000E+01
    -75.466  0.0000E+00  0.8000E+01
    -75.019  0.0000E+00  0.8000E+01
    -74.572  0.0000E+00  0.8000E+01
    -74.124  0.0000E+00  0.8000E+01
    -73.677  0.0000E+00  0.8000E+01
    -73.230  0.0000E+00  0.8000E+01
    -72.783  0.0000E+00  0.8000E+01
    -72.336  0.0000E+00  0.8000E+01
    -71.889  0.0000E+00  0.8000E+01
    -71.441  0.0000E+00  0.8000E+01
    -70.994  0.0000E+00  0.8000E+01
    -70.547  0.0000E+00  0.8000E+01
    -70.100  0.0000E+00  0.8000E+01
    -69.653  0.0000E+00  0.8000E+01
    -69.206  0.0000E+00  0.8000E+01
    -68.758  0.0000E+00  0.8000E+01
    -68.311  0.0000E+00  0.8000E+01
    -67.864  0.0000E+00  0.8000E+01
    -67.417  0.0000E+00  0.8000E+01
    -66.970  0.0000E+00  0.8000E+01
    -66.523  0.0000E+00  0.8000E+01
    -66.075  0.0000E+00  0.8000E+01
    -65.628  0.0000E+00  0.8000E+01
    -65.181  0.0000E+00  0.8000E+01
    -64.734  0.0000E+00  0.8000E+01
    -64.287  0.0000E+00  0.8000E+01
    -63.840  0.0000E+00  0.8000E+01
    -63.392  0.0000E+00  0.8000E+01
    -62.945  0.0000E+00  0.8000E+01
    -62.498  0.0000E+00  0.8000E+01
    -62.051  0.0000E+00  0.8000E+01
    -61.604  0.0000E+00  0.8000E+01
    -61.157  0.0000E+00  0.8000E+01
    -60.709  0.0000E+00  0.8000E+01
    -60.262  0.0000E+00  0.8000E+01
    -59.815  0.0000E+00  0.8000E+01
    -59.368  0.0000E+00  0.8000E+01
    -58.921  0.0000E+00  0.8000E+01
    -58.474  0.0000E+00  0.8000E+01
    -58.026  0.0000E+00  0.8000E+01
    -57.579  0.0000E+00  0.8000E+01
    -57.132  0.0000E+00  0.8000E+01
    -56.685  0.0000E+00  0.8000E+01
    -56.238  0.0000E+00  0.8000E+01
    -55.791  0.0000E+00  0.8000E+01
    -55.344  0.0000E+00  0.8000E+01
    -54.896  0.0000E+00  0.8000E+01
    -54.449  0.0000E+00  0.8000E+01
    -54.002  0.0000E+00  0.8000E+01
    -53.555  0.0000E+00  0.8000E+01
    -53.108  0.0000E+00  0.8000E+01
    -52.661  0.0000E+00  0.8000E+01
    -52.213  0.0000E+00  0.8000E+01
    -51.766  0.0000E+00  0.8000E+01
    -51.319  0.0000E+00  0.8000E+01
    -50.872  0.0000E+00  0.8000E+01
    -50.425  0.0000E+00  0.8000E+01
    -49.978  0.0000E+00  0.8000E+01
    -49.530  0.0000E+00  0.8000E+01
    -49.083  0.0000E+00  0.8000E+01
    -48.636  0.0000E+00  0.8000E+01
    -48.189  0.0000E+00  0.8000E+01
    -47.742  0.0000E+00  0.8000E+01
    -47.295  0.0000E+00  0.8000E+01
    -46.847  0.0000E+00  0.8000E+01
    -46.400  0.0000E+00  0.8000E+01
    -45.953  0.0000E+00  0.8000E+01
    -45.506  0.0000E+00  0.8000E+01
    -45.059  0.0000E+00  0.8000E+01
    -44.612  0.0000E+00  0.8000E+01
    -44.164  0.0000E+00  0.8000E+01
    -43.717  0.0000E+00  0.8000E+01
    -43.270  0.0000E+00  0.8000E+01
    -42.823  0.0000E+00  0.8000E+01
    -42.376  0.0000E+00  0.8000E+01
    -41.929  0.0000E+00  0.8000E+01
    -41.481  0.0000E+00  0.8000E+01
    -41.034  0.0000E+00  0.8000E+01
    -40.587  0.0000E+00  0.8000E+01
    -40.140  0.0000E+00  0.8000E+01
    -39.693  0.0000E+00  0.8000E+01
    -39.246  0.0000E+00  0.8000E+01
    -38.798  0.0000E+00  0.8000E+01
    -38.351  0.0000E+00  0.8000E+01
    -37.904  0.0000E+00  0.8000E+01
    -37.457  0.0000E+00  0.8000E+01
    -37.010  0.0000E+00  0.8000E+01
    -36.563  0.0000E+00  0.8000E+01
    -36.115  0.0000E+00  0.8000E+01
    -35.668  0.0000E+00  0.8000E+01
    -35.221  0.0000E+00  0.8000E+01
    -34.774  0.0000E+00  0.8000E+01
    -34.327  0.0000E+00  0.8000E+01
    -33.880  0.0000E+00  0.8000E+01
    -33.432  0.0000E+00  0.8000E+01
    -32.985  0.0000E+00  0.8000E+01
    -32.538  0.0000E+00  0.8000E+01
    -32.091  0.0000E+00  0.8000E+01
    -31.644  0.0000E+00  0.8000E+01
    -31.197  0.0000E+00  0.8000E+01
    -30.749  0.0000E+00  0.8000E+01
    -30.302  0.0000E+00  0.8000E+01
    -29.855  0.0000E+00  0.8000E+01
    -29.408  0.0000E+00  0.8000E+01
    -28.961  0.0000E+00  0.8000E+01
    -28.514  0.0000E+00  0.8000E+01
    -28.066  0.0000E+00  0.8000E+01
    -27.619  0.0000E+00  0.8000E+01
    -27.172  0.0000E+00  0.8000E+01
    -26.725  0.0000E+00  0.8000E+01
    -26.278  0.0000E+00  0.8000E+01
    -25.831  0.0000E+00  0.8000E+01
    -25.383  0.0000E+00  0.1000E+02
    -24.936  0.0000E+00  0.1000E+02
    -24.489  0.0000E+00  0.1000E+02
    -24.042  0.0000E+00  0.1000E+02
    -23.595  0.0000E+00  0.1000E+02
    -23.148  0.0000E+00  0.1000E+02
    -22.700  0.0000E+00  0.1000E+02
    -22.253  0.0000E+00  0.1000E+02
    -21.806  0.0000E+00  0.1000E+02
    -21.359  0.0000E+00  0.1000E+02
    -20.912  0.0000E+00  0.1000E+02
    -20.465  0.0000E+00  0.1000E+02
    -20.017  0.0000E+00  0.1000E+02
    -19.570  0.0000E+00  0.1000E+02
    -19.123  0.0000E+00  0.1000E+02
    -18.676  0.0000E+00  0.1000E+02
    -18.229  0.0000E+00  0.1000E+02
    -17.782  0.0000E+00  0.1000E+02
    -17.334  0.0000E+00  0.1000E+02
    -16.887  0.0000E+00  0.1000E+02
    -16.440  0.0000E+00  0.1000E+02
    -15.993  0.0000E+00  0.1000E+02
    -15.546  0.0000E+00  0.1000E+02
    -15.099  0.0000E+00  0.1000E+02
    -14.651  0.0000E+00  0.1000E+02
    -14.204  0.0000E+00  0.1000E+02
    -13.757  0.0000E+00  0.1000E+02
    -13.310  0.0000E+00  0.1000E+02
    -12.863  0.0000E+00  0.1000E+02
    -12.416  0.0000E+00  0.1000E+02
    -11.968  0.0000E+00  0.1000E+02
    -11.521  0.0000E+00  0.1000E+02
    -11.074  0.0000E+00  0.1000E+02
    -10.627  0.7780E-01  0.1003E+02
    -10.180  0.0000E+00  0.1037E+02
     -9.733  0.0000E+00  0.1086E+02
     -9.285  0.1029E+01  0.1166E+02
     -8.838  0.3647E+00  0.1384E+02
     -8.391  0.1428E+01  0.1695E+02
     -7.944  0.2286E+00  0.1835E+02
     -7.497  0.9393E+00  0.2005E+02
     -7.050  0.8529E-01  0.2187E+02
     -6.602  0.0000E+00  0.2200E+02
     -6.155  0.0000E+00  0.2200E+02
     -5.708  0.0000E+00  0.2200E+02
     -5.261  0.0000E+00  0.2200E+02
     -4.814  0.0000E+00  0.2200E+02
     -4.367  0.0000E+00  0.2200E+02
     -3.919  0.0000E+00  0.2200E+02
     -3.472  0.6332E-09  0.2200E+02
     -3.025  0.7322E+00  0.2298E+02
     -2.578  0.2840E+00  0.2425E+02
     -2.131  0.3637E+00  0.2543E+02
     -1.684  0.3043E-01  0.2629E+02
     -1.236  0.2463E+00  0.2661E+02
     -0.789  0.0000E+00  0.2743E+02
     -0.342  0.6723E+00  0.2855E+02
      0.105  0.4283E+00  0.2982E+02
      0.552  0.1060E+01  0.3250E+02
      0.999  0.7302E+00  0.3340E+02
      1.447  0.7043E+00  0.3508E+02
      1.894  0.6973E+00  0.3643E+02
      2.341  0.4167E+00  0.3789E+02
      2.788  0.0000E+00  0.3925E+02
      3.235  0.1521E+00  0.3970E+02
      3.682  0.6085E-01  0.4000E+02
      4.130  0.0000E+00  0.4000E+02
      4.577  0.0000E+00  0.4000E+02
      5.024  0.0000E+00  0.4000E+02
      5.471  0.2154E-02  0.4011E+02
      5.918  0.1251E-05  0.4041E+02
      6.365  0.0000E+00  0.4079E+02
      6.813  0.5846E+00  0.4230E+02
      7.260  0.6232E-04  0.4385E+02
      7.707  0.3040E+00  0.4596E+02
      8.154  0.1094E+01  0.4786E+02
      8.601  0.8298E+00  0.4951E+02
      9.048  0.1684E-03  0.5042E+02
      9.496  0.1125E+01  0.5275E+02
      9.943  0.1094E+01  0.5546E+02
     10.390  0.4791E+00  0.5679E+02
     10.837  0.4854E+00  0.5929E+02
     11.284  0.3100E+00  0.6193E+02
     11.731  0.2082E+00  0.6347E+02
     12.179  0.6147E+00  0.6504E+02
     12.626  0.1198E+01  0.6769E+02
     13.073  0.3901E+00  0.6924E+02
     13.520  0.3126E+00  0.7078E+02
     13.967  0.5721E+00  0.7266E+02
     14.414  0.9311E+00  0.7555E+02
     14.862  0.1217E+00  0.7741E+02
     15.309  0.1185E+01  0.7975E+02
     15.756  0.3174E+00  0.8188E+02
     16.203  0.4870E+00  0.8321E+02
     16.650  0.3216E+00  0.8473E+02
     17.097  0.8525E+00  0.8652E+02
     17.545  0.8774E+00  0.8920E+02
     17.992  0.9119E+00  0.9155E+02
     18.439  0.3186E-01  0.9282E+02
     18.886  0.4982E+00  0.9475E+02
     19.333  0.1217E+00  0.9567E+02
     19.780  0.0000E+00  0.9595E+02
     20.228  0.0000E+00  0.9600E+02
     20.675  0.0000E+00  0.9600E+02
     21.122  0.0000E+00  0.9600E+02
     21.569  0.0000E+00  0.9600E+02
     22.016  0.0000E+00  0.9600E+02
     22.463  0.0000E+00  0.9600E+02
     22.911  0.0000E+00  0.9600E+02
     23.358  0.0000E+00  0.9600E+02
     23.805  0.0000E+00  0.9600E+02
     24.252  0.0000E+00  0.9600E+02
     24.699  0.0000E+00  0.9600E+02
     25.146  0.0000E+00  0.9600E+02
     25.594  0.0000E+00  0.9600E+02
     26.041  0.0000E+00  0.9600E+02
