       N       E                     dE             d eps       ncg     rms          ort
DAV:   1    -0.868624232690E+03   -0.86862E+03   -0.19459E+04   960   0.138E+03
DAV:   2    -0.108286486131E+04   -0.21424E+03   -0.20373E+03   960   0.230E+02
DAV:   3    -0.109821941803E+04   -0.15355E+02   -0.15298E+02   960   0.498E+01
DAV:   4    -0.109859888394E+04   -0.37947E+00   -0.37945E+00   960   0.668E+00
DAV:   5    -0.404402457331E+02    0.10582E+04   -0.54906E+00   960   0.908E+00
SDA:   6    -0.376475892668E+02    0.27927E+01   -0.54906E+00   960   0.317E+01 0.000E+00
CGA:   7    -0.388758738445E+02   -0.12283E+01   -0.12257E+01   960   0.525E+00 0.262E-01
CGA:   8    -0.389861359390E+02   -0.11026E+00   -0.11026E+00   960   0.408E+00 0.221E-02
CGA:   9    -0.390812064634E+02   -0.95071E-01   -0.95118E-01   960   0.148E+00-0.975E-03
CGA:  10    -0.391077439288E+02   -0.26537E-01   -0.26542E-01   960   0.408E-01 0.130E-03
CGA:  11    -0.391162811434E+02   -0.85372E-02   -0.85372E-02   960   0.131E-01 0.222E-04
CGA:  12    -0.391194056805E+02   -0.31245E-02   -0.31245E-02   960   0.510E-02-0.709E-06
CGA:  13    -0.391207423568E+02   -0.13367E-02   -0.13370E-02   960   0.201E-02-0.509E-05
CGA:  14    -0.391212471543E+02   -0.50480E-03   -0.50498E-03   960   0.622E-03-0.432E-05
CGA:  15    -0.391214175344E+02   -0.17038E-03   -0.17055E-03   960   0.234E-03-0.280E-05
CGA:  16    -0.391214823631E+02   -0.64829E-04   -0.64983E-04   960   0.880E-04-0.253E-05
CGA:  17    -0.391215063208E+02   -0.23958E-04   -0.24086E-04   960   0.331E-04-0.229E-05
CGA:  18    -0.391215151945E+02   -0.88736E-05   -0.89600E-05   960   0.129E-04-0.159E-05
   1 F= -.39121515E+02 E0= -.39121515E+02  d E =-.132738-135
