 vasp.6.3.2 27Jun22 (build Jan 18 2024 14:18:24) complex                         
 executed on    LinuxNV_CrayMPICH date 2024.05.20  12:05:12
 running on   24 total cores
 distrk:  each k-point on   24 cores,    1 groups
 distr:  one band on NCORE=   1 cores,   24 groups


--------------------------------------------------------------------------------------------------------


 INCAR:
   SYSTEM = Be4P3Rb
   ENCUT = 400
   PREC = Accurate
   ISTART = 0
   ICHARG = 2
   LCHARG = .FALSE.
   LWAVE = .FALSE.
   LHFCALC = .TRUE.
   HFSCREEN = 0.2
   AEXX = 0.25
   ALGO = All
   GGA = PE
   EDIFF = 1E-5
   ISMEAR = 0
   SIGMA = 0.01

 POTCAR:    PAW_PBE Rb_sv 06Sep2000               
 POTCAR:    PAW_PBE Be_sv 06Sep2000               
 POTCAR:    PAW_PBE P 06Sep2000                   
 -----------------------------------------------------------------------------
|                                                                             |
|           W    W    AA    RRRRR   N    N  II  N    N   GGGG   !!!           |
|           W    W   A  A   R    R  NN   N  II  NN   N  G    G  !!!           |
|           W    W  A    A  R    R  N N  N  II  N N  N  G       !!!           |
|           W WW W  AAAAAA  RRRRR   N  N N  II  N  N N  G  GGG   !            |
|           WW  WW  A    A  R   R   N   NN  II  N   NN  G    G                |
|           W    W  A    A  R    R  N    N  II  N    N   GGGG   !!!           |
|                                                                             |
|     For optimal performance we recommend to set                             |
|       NCORE = 2 up to number-of-cores-per-socket                            |
|     NCORE specifies how many cores store one orbital (NPAR=cpu/NCORE).      |
|     This setting can greatly improve the performance of VASP for DFT.       |
|     The default, NCORE=1 might be grossly inefficient on modern             |
|     multi-core architectures or massively parallel machines. Do your        |
|     own testing! More info at https://www.vasp.at/wiki/index.php/NCORE      |
|     Unfortunately you need to use the default for GW and RPA                |
|     calculations (for HF NCORE is supported but not extensively tested      |
|     yet).                                                                   |
|                                                                             |
 -----------------------------------------------------------------------------

 POTCAR:    PAW_PBE Rb_sv 06Sep2000               
   SHA256 =  06c38fe1ec7709d96d3959f5f2c66fec330a93b52b042a8fb2dfe6a3a3fb06c1 Rb_sv/POTCAR          
   COPYR  = (c) Copyright 06Sep2000 Georg Kresse                                                    
   COPYR  = This file is part of the software VASP. Any use, copying, and all other rights are regul
   COPYR  = If you do not have a valid VASP license, you may not use, copy or distribute this file. 
   VRHFIN =Rb: 4s4p5s                                                                               
   LEXCH  = PE                                                                                      
   EATOM  =   662.5034 eV,   48.6926 Ry                                                             
                                                                                                    
   TITEL  = PAW_PBE Rb_sv 06Sep2000                                                                 
   LULTRA =        F    use ultrasoft PP ?                                                          
   IUNSCR =        1    unscreen: 0-lin 1-nonlin 2-no                                               
   RPACOR =    2.200    partial core radius                                                         
   POMASS =   85.468; ZVAL   =    9.000    mass and valenz                                          
   RCORE  =    2.500    outmost cutoff radius                                                       
   RWIGS  =    4.570; RWIGS  =    2.418    wigner-seitz radius (au A)                               
   ENMAX  =  220.112; ENMIN  =  165.084 eV                                                          
   RCLOC  =    2.200    cutoff for local pot                                                        
   LCOR   =        T    correct aug charges                                                         
   LPAW   =        T    paw PP                                                                      
   EAUG   =  423.861                                                                                
   DEXC   =    0.000                                                                                
   RMAX   =    2.546    core radius for proj-oper                                                   
   RAUG   =    1.300    factor for augmentation sphere                                              
   RDEP   =    2.541    radius for radial grids                                                     
   RDEPT  =    2.044    core radius for aug-charge                                                  
                                                                                                    
   Atomic configuration                                                                             
   10 entries                                                                                       
     n  l   j            E        occ.                                                              
     1  0  0.50    -15031.5419   2.0000                                                             
     2  0  0.50     -2007.8842   2.0000                                                             
     2  1  1.50     -1779.8144   6.0000                                                             
     3  0  0.50      -297.9619   2.0000                                                             
     3  1  1.50      -224.8335   6.0000                                                             
     3  2  2.50      -103.9539  10.0000                                                             
     4  0  0.50       -31.8932   2.0000                                                             
     5  0  0.50        -2.2327   0.9990                                                             
     4  1  1.50       -15.9645   6.0000                                                             
     4  2  1.50        -0.0020   0.0010                                                             
   Description                                                                                      
     l       E           TYP  RCUT    TYP  RCUT                                                     
     0    -31.8932387     23  2.500                                                                 
     0     -2.2326525     23  2.500                                                                 
     1    -15.9644597     23  2.500                                                                 
     1    -17.3250423     23  2.500                                                                 
     2     -0.0020100     23  2.500                                                                 
  local pseudopotential read in
  partial core-charges read in
  partial kinetic energy density read in
  atomic valenz-charges read in
  non local Contribution for L=            0  read in
    real space projection operators read in
  non local Contribution for L=            0  read in
    real space projection operators read in
  non local Contribution for L=            1  read in
    real space projection operators read in
  non local Contribution for L=            1  read in
    real space projection operators read in
  non local Contribution for L=            2  read in
    real space projection operators read in
    PAW grid and wavefunctions read in
 
   number of l-projection  operators is LMAX  =            5
   number of lm-projection operators is LMMAX =           13
 
 POTCAR:    PAW_PBE Be_sv 06Sep2000               
   SHA256 =  95d73059eaef0de9a2d42225277cca956d5b2c38504d1b500b1a4c08b9931b7a Be_sv/POTCAR          
   COPYR  = (c) Copyright 06Sep2000 Georg Kresse                                                    
   COPYR  = This file is part of the software VASP. Any use, copying, and all other rights are regul
   COPYR  = If you do not have a valid VASP license, you may not use, copy or distribute this file. 
   VRHFIN =Be: s2p0                                                                                 
   LEXCH  = PE                                                                                      
   EATOM  =   398.1457 eV,   29.2629 Ry                                                             
                                                                                                    
   TITEL  = PAW_PBE Be_sv 06Sep2000                                                                 
   LULTRA =        F    use ultrasoft PP ?                                                          
   IUNSCR =        0    unscreen: 0-lin 1-nonlin 2-no                                               
   RPACOR =    0.000    partial core radius                                                         
   POMASS =    9.013; ZVAL   =    4.000    mass and valenz                                          
   RCORE  =    1.800    outmost cutoff radius                                                       
   RWIGS  =    1.880; RWIGS  =    0.995    wigner-seitz radius (au A)                               
   ENMAX  =  308.768; ENMIN  =  231.576 eV                                                          
   ICORE  =        2    local potential                                                             
   LCOR   =        T    correct aug charges                                                         
   LPAW   =        T    paw PP                                                                      
   EAUG   =  780.944                                                                                
   RMAX   =    1.838    core radius for proj-oper                                                   
   RAUG   =    1.300    factor for augmentation sphere                                              
   RDEP   =    1.879    radius for radial grids                                                     
   RDEPT  =    1.200    core radius for aug-charge                                                  
                                                                                                    
   Atomic configuration                                                                             
    5 entries                                                                                       
     n  l   j            E        occ.                                                              
     1  0  0.50      -106.2287   2.0000                                                             
     1  0  0.50      -107.5894   0.0000                                                             
     2  0  0.50        -5.6162   1.9900                                                             
     2  1  0.50        -2.0244   0.0100                                                             
     3  2  1.50        -1.3606   0.0000                                                             
   Description                                                                                      
     l       E           TYP  RCUT    TYP  RCUT                                                     
     0   -106.2286628     23  1.500                                                                 
     0   -107.5894297     23  1.500                                                                 
     0     -5.6161740     23  1.500                                                                 
     1     -2.0243506     23  1.800                                                                 
     1     10.7523704     23  1.800                                                                 
     2     -1.3605826     15  1.800                                                                 
  local pseudopotential read in
  kinetic energy density of atom read in
  atomic valenz-charges read in
  non local Contribution for L=            0  read in
    real space projection operators read in
  non local Contribution for L=            0  read in
    real space projection operators read in
  non local Contribution for L=            0  read in
    real space projection operators read in
  non local Contribution for L=            1  read in
    real space projection operators read in
  non local Contribution for L=            1  read in
    real space projection operators read in
    PAW grid and wavefunctions read in
 
   number of l-projection  operators is LMAX  =            5
   number of lm-projection operators is LMMAX =            9
 
 POTCAR:    PAW_PBE P 06Sep2000                   
   SHA256 =  df60c54a93efe35c9e85ae94c010c75e9f6960a95d5595d7cdba4096d109af88 P/POTCAR              
   COPYR  = (c) Copyright 06Sep2000 Georg Kresse                                                    
   COPYR  = This file is part of the software VASP. Any use, copying, and all other rights are regul
   COPYR  = If you do not have a valid VASP license, you may not use, copy or distribute this file. 
   VRHFIN =P : s2p3                                                                                 
   LEXCH  = PE                                                                                      
   EATOM  =   176.0430 eV,   12.9388 Ry                                                             
                                                                                                    
   TITEL  = PAW_PBE P 06Sep2000                                                                     
   LULTRA =        F    use ultrasoft PP ?                                                          
   IUNSCR =        1    unscreen: 0-lin 1-nonlin 2-no                                               
   RPACOR =    1.500    partial core radius                                                         
   POMASS =   30.974; ZVAL   =    5.000    mass and valenz                                          
   RCORE  =    1.900    outmost cutoff radius                                                       
   RWIGS  =    2.330; RWIGS  =    1.233    wigner-seitz radius (au A)                               
   ENMAX  =  255.040; ENMIN  =  191.280 eV                                                          
   ICORE  =        2    local potential                                                             
   LCOR   =        T    correct aug charges                                                         
   LPAW   =        T    paw PP                                                                      
   EAUG   =  342.924                                                                                
   DEXC   =    0.000                                                                                
   RMAX   =    1.935    core radius for proj-oper                                                   
   RAUG   =    1.300    factor for augmentation sphere                                              
   RDEP   =    1.931    radius for radial grids                                                     
   RDEPT  =    1.794    core radius for aug-charge                                                  
                                                                                                    
   Atomic configuration                                                                             
    6 entries                                                                                       
     n  l   j            E        occ.                                                              
     1  0  0.50     -2084.0982   2.0000                                                             
     2  0  0.50      -173.9859   2.0000                                                             
     2  1  1.50      -124.4865   6.0000                                                             
     3  0  0.50       -13.9692   2.0000                                                             
     3  1  0.50        -5.5067   3.0000                                                             
     3  2  1.50        -5.4423   0.0000                                                             
   Description                                                                                      
     l       E           TYP  RCUT    TYP  RCUT                                                     
     0    -13.9691527     23  1.900                                                                 
     0    -11.7794650     23  1.900                                                                 
     1     -5.5066937     23  1.900                                                                 
     1     -0.2556953     23  1.900                                                                 
     2     -5.4423304     23  1.900                                                                 
  local pseudopotential read in
  partial core-charges read in
  partial kinetic energy density read in
  atomic valenz-charges read in
  non local Contribution for L=            0  read in
    real space projection operators read in
  non local Contribution for L=            0  read in
    real space projection operators read in
  non local Contribution for L=            1  read in
    real space projection operators read in
  non local Contribution for L=            1  read in
    real space projection operators read in
    PAW grid and wavefunctions read in
 
   number of l-projection  operators is LMAX  =            4
   number of lm-projection operators is LMMAX =            8
 
  PAW_PBE Rb_sv 06Sep2000               :
 energy of atom  1       EATOM= -662.5034
 kinetic energy error for atom=    0.0021 (will be added to EATOM!!)
  PAW_PBE Be_sv 06Sep2000               :
 energy of atom  2       EATOM= -398.1457
 kinetic energy error for atom=    0.0061 (will be added to EATOM!!)
  PAW_PBE P 06Sep2000                   :
 energy of atom  3       EATOM= -176.0430
 kinetic energy error for atom=    0.0023 (will be added to EATOM!!)
 
 
 POSCAR: Be4P3Rb.cif
  positions in direct lattice
  velocities in cartesian coordinates
 exchange correlation table for  LEXCH =        8
   RHO(1)=    0.500       N(1)  =     2000
   RHO(2)=  100.500       N(2)  =     4000
 


--------------------------------------------------------------------------------------------------------


 ion  position               nearest neighbor table
   1  0.000  0.000  0.500-   7 3.48   8 3.48   7 3.48   8 3.48   7 3.48   8 3.48   7 3.48   8 3.48
                             4 3.94   5 3.94   4 3.94   5 3.94   2 3.94   3 3.94   2 3.94   3 3.94
   2  0.000  0.500  0.143-   7 2.16   7 2.16   6 2.30   6 2.30   1 3.94   1 3.94
   3  0.000  0.500  0.857-   8 2.16   8 2.16   6 2.30   6 2.30   1 3.94   1 3.94
   4  0.500  0.000  0.857-   8 2.16   8 2.16   6 2.30   6 2.30   1 3.94   1 3.94
   5  0.500  0.000  0.143-   7 2.16   7 2.16   6 2.30   6 2.30   1 3.94   1 3.94
   6  0.000  0.000  0.000-   2 2.30   3 2.30   4 2.30   5 2.30   2 2.30   3 2.30   4 2.30   5 2.30

   7  0.500  0.500  0.261-   2 2.16   5 2.16   5 2.16   2 2.16   1 3.48   1 3.48   1 3.48   1 3.48

   8  0.500  0.500  0.739-   3 2.16   4 2.16   4 2.16   3 2.16   1 3.48   1 3.48   1 3.48   1 3.48

 
  LATTYP: Found a simple tetragonal cell.
 ALAT       =     3.6444689888
 C/A-ratio  =     2.6845662960
  
  Lattice vectors:
  
 A1 = (   3.6444689888,   0.0000000000,  -0.0000000000)
 A2 = (   0.0000000000,   3.6444689888,   0.0000000000)
 A3 = (   0.0000000000,   0.0000000000,   9.7838186140)


Analysis of symmetry for initial positions (statically):
=====================================================================
 Subroutine PRICEL returns:
 Original cell was already a primitive cell.
 

 Routine SETGRP: Setting up the symmetry group for a 
 simple tetragonal supercell.


 Subroutine GETGRP returns: Found 16 space group operations
 (whereof 16 operations were pure point group operations)
 out of a pool of 16 trial point group operations.


The static configuration has the point symmetry D_4h.


Analysis of symmetry for dynamics (positions and initial velocities):
=====================================================================
 Subroutine PRICEL returns:
 Original cell was already a primitive cell.
 

 Routine SETGRP: Setting up the symmetry group for a 
 simple tetragonal supercell.


 Subroutine GETGRP returns: Found 16 space group operations
 (whereof 16 operations were pure point group operations)
 out of a pool of 16 trial point group operations.


The dynamic configuration has the point symmetry D_4h.


 Subroutine INISYM returns: Found 16 space group operations
 (whereof 16 operations are pure point group operations),
 and found     1 'primitive' translations


----------------------------------------------------------------------------------------

                                     Primitive cell                                     

  volume of cell :     129.9502

  direct lattice vectors                    reciprocal lattice vectors
     3.644468989  0.000000000 -0.000000000     0.274388396  0.000000000  0.000000000
     0.000000000  3.644468989  0.000000000    -0.000000000  0.274388396  0.000000000
     0.000000000  0.000000000  9.783818614     0.000000000 -0.000000000  0.102209581

  length of vectors
     3.644468989  3.644468989  9.783818614     0.274388396  0.274388396  0.102209581

  position of ions in fractional coordinates (direct lattice)
     0.000000000  0.000000000  0.500000000
     0.000000000  0.500000000  0.142971773
     0.000000000  0.500000000  0.857028227
     0.500000000  0.000000000  0.857028227
     0.500000000  0.000000000  0.142971773
     0.000000000  0.000000000  0.000000000
     0.500000000  0.500000000  0.260602315
     0.500000000  0.500000000  0.739397685

  ion indices of the primitive-cell ions
   primitive index   ion index
                 1           1
                 2           2
                 3           3
                 4           4
                 5           5
                 6           6
                 7           7
                 8           8

----------------------------------------------------------------------------------------

 
 
 KPOINTS: Auto                                    

Automatic generation of k-mesh.
 Grid dimensions read from file:
 generate k-points for:    7    7    3

 Generating k-lattice:

  Cartesian coordinates                     Fractional coordinates (reciprocal lattice)
     0.039198342  0.000000000  0.000000000     0.142857143  0.000000000  0.000000000
    -0.000000000  0.039198342  0.000000000     0.000000000  0.142857143  0.000000000
     0.000000000 -0.000000000  0.034069860     0.000000000  0.000000000  0.333333333

  Length of vectors
     0.039198342  0.039198342  0.034069860

  Shift w.r.t. Gamma in fractional coordinates (k-lattice)
     0.000000000  0.000000000  0.000000000

 
 Subroutine IBZKPT returns following result:
 ===========================================
 
 Found     20 irreducible k-points:
 
 Following reciprocal coordinates:
            Coordinates               Weight
  0.000000  0.000000  0.000000      1.000000
  0.142857  0.000000  0.000000      4.000000
  0.285714  0.000000  0.000000      4.000000
  0.428571  0.000000  0.000000      4.000000
  0.142857  0.142857  0.000000      4.000000
  0.285714  0.142857  0.000000      8.000000
  0.428571  0.142857  0.000000      8.000000
  0.285714  0.285714  0.000000      4.000000
  0.428571  0.285714  0.000000      8.000000
  0.428571  0.428571  0.000000      4.000000
  0.000000  0.000000  0.333333      2.000000
  0.142857  0.000000  0.333333      8.000000
  0.285714  0.000000  0.333333      8.000000
  0.428571  0.000000  0.333333      8.000000
  0.142857  0.142857  0.333333      8.000000
  0.285714  0.142857  0.333333     16.000000
  0.428571  0.142857  0.333333     16.000000
  0.285714  0.285714  0.333333      8.000000
  0.428571  0.285714  0.333333     16.000000
  0.428571  0.428571  0.333333      8.000000
 
 Following cartesian coordinates:
            Coordinates               Weight
  0.000000  0.000000  0.000000      1.000000
  0.039198  0.000000  0.000000      4.000000
  0.078397  0.000000  0.000000      4.000000
  0.117595  0.000000  0.000000      4.000000
  0.039198  0.039198  0.000000      4.000000
  0.078397  0.039198  0.000000      8.000000
  0.117595  0.039198  0.000000      8.000000
  0.078397  0.078397  0.000000      4.000000
  0.117595  0.078397  0.000000      8.000000
  0.117595  0.117595  0.000000      4.000000
  0.000000  0.000000  0.034070      2.000000
  0.039198  0.000000  0.034070      8.000000
  0.078397  0.000000  0.034070      8.000000
  0.117595  0.000000  0.034070      8.000000
  0.039198  0.039198  0.034070      8.000000
  0.078397  0.039198  0.034070     16.000000
  0.117595  0.039198  0.034070     16.000000
  0.078397  0.078397  0.034070      8.000000
  0.117595  0.078397  0.034070     16.000000
  0.117595  0.117595  0.034070      8.000000
 
 
 Subroutine IBZKPT_HF returns following result:
 ==============================================
 
 Found    147 k-points in 1st BZ
 the following    147 k-points will be used (e.g. in the exchange kernel)
 Following reciprocal coordinates:   # in IRBZ
  0.000000  0.000000  0.000000    0.00680272   1 t-inv F
  0.142857  0.000000  0.000000    0.00680272   2 t-inv F
  0.285714  0.000000  0.000000    0.00680272   3 t-inv F
  0.428571  0.000000  0.000000    0.00680272   4 t-inv F
  0.142857  0.142857  0.000000    0.00680272   5 t-inv F
  0.285714  0.142857  0.000000    0.00680272   6 t-inv F
  0.428571  0.142857  0.000000    0.00680272   7 t-inv F
  0.285714  0.285714  0.000000    0.00680272   8 t-inv F
  0.428571  0.285714  0.000000    0.00680272   9 t-inv F
  0.428571  0.428571  0.000000    0.00680272  10 t-inv F
  0.000000  0.000000  0.333333    0.00680272  11 t-inv F
  0.142857  0.000000  0.333333    0.00680272  12 t-inv F
  0.285714  0.000000  0.333333    0.00680272  13 t-inv F
  0.428571  0.000000  0.333333    0.00680272  14 t-inv F
  0.142857  0.142857  0.333333    0.00680272  15 t-inv F
  0.285714  0.142857  0.333333    0.00680272  16 t-inv F
  0.428571  0.142857  0.333333    0.00680272  17 t-inv F
  0.285714  0.285714  0.333333    0.00680272  18 t-inv F
  0.428571  0.285714  0.333333    0.00680272  19 t-inv F
  0.428571  0.428571  0.333333    0.00680272  20 t-inv F
 -0.142857 -0.000000 -0.000000    0.00680272   2 t-inv F
 -0.000000  0.142857  0.000000    0.00680272   2 t-inv F
  0.000000 -0.142857 -0.000000    0.00680272   2 t-inv F
 -0.285714 -0.000000 -0.000000    0.00680272   3 t-inv F
 -0.000000  0.285714  0.000000    0.00680272   3 t-inv F
  0.000000 -0.285714 -0.000000    0.00680272   3 t-inv F
 -0.428571 -0.000000 -0.000000    0.00680272   4 t-inv F
 -0.000000  0.428571  0.000000    0.00680272   4 t-inv F
  0.000000 -0.428571 -0.000000    0.00680272   4 t-inv F
 -0.142857 -0.142857 -0.000000    0.00680272   5 t-inv F
 -0.142857  0.142857  0.000000    0.00680272   5 t-inv F
  0.142857 -0.142857 -0.000000    0.00680272   5 t-inv F
 -0.285714 -0.142857 -0.000000    0.00680272   6 t-inv F
 -0.142857  0.285714  0.000000    0.00680272   6 t-inv F
  0.142857 -0.285714 -0.000000    0.00680272   6 t-inv F
 -0.285714  0.142857 -0.000000    0.00680272   6 t-inv F
  0.285714 -0.142857  0.000000    0.00680272   6 t-inv F
  0.142857  0.285714 -0.000000    0.00680272   6 t-inv F
 -0.142857 -0.285714  0.000000    0.00680272   6 t-inv F
 -0.428571 -0.142857 -0.000000    0.00680272   7 t-inv F
 -0.142857  0.428571  0.000000    0.00680272   7 t-inv F
  0.142857 -0.428571 -0.000000    0.00680272   7 t-inv F
 -0.428571  0.142857 -0.000000    0.00680272   7 t-inv F
  0.428571 -0.142857  0.000000    0.00680272   7 t-inv F
  0.142857  0.428571 -0.000000    0.00680272   7 t-inv F
 -0.142857 -0.428571  0.000000    0.00680272   7 t-inv F
 -0.285714 -0.285714 -0.000000    0.00680272   8 t-inv F
 -0.285714  0.285714  0.000000    0.00680272   8 t-inv F
  0.285714 -0.285714 -0.000000    0.00680272   8 t-inv F
 -0.428571 -0.285714 -0.000000    0.00680272   9 t-inv F
 -0.285714  0.428571  0.000000    0.00680272   9 t-inv F
  0.285714 -0.428571 -0.000000    0.00680272   9 t-inv F
 -0.428571  0.285714 -0.000000    0.00680272   9 t-inv F
  0.428571 -0.285714  0.000000    0.00680272   9 t-inv F
  0.285714  0.428571 -0.000000    0.00680272   9 t-inv F
 -0.285714 -0.428571  0.000000    0.00680272   9 t-inv F
 -0.428571 -0.428571 -0.000000    0.00680272  10 t-inv F
 -0.428571  0.428571  0.000000    0.00680272  10 t-inv F
  0.428571 -0.428571 -0.000000    0.00680272  10 t-inv F
 -0.000000 -0.000000 -0.333333    0.00680272  11 t-inv F
 -0.142857 -0.000000 -0.333333    0.00680272  12 t-inv F
 -0.000000  0.142857  0.333333    0.00680272  12 t-inv F
  0.000000 -0.142857 -0.333333    0.00680272  12 t-inv F
 -0.142857 -0.000000  0.333333    0.00680272  12 t-inv F
  0.142857  0.000000 -0.333333    0.00680272  12 t-inv F
  0.000000 -0.142857  0.333333    0.00680272  12 t-inv F
 -0.000000  0.142857 -0.333333    0.00680272  12 t-inv F
 -0.285714 -0.000000 -0.333333    0.00680272  13 t-inv F
 -0.000000  0.285714  0.333333    0.00680272  13 t-inv F
  0.000000 -0.285714 -0.333333    0.00680272  13 t-inv F
 -0.285714 -0.000000  0.333333    0.00680272  13 t-inv F
  0.285714  0.000000 -0.333333    0.00680272  13 t-inv F
  0.000000 -0.285714  0.333333    0.00680272  13 t-inv F
 -0.000000  0.285714 -0.333333    0.00680272  13 t-inv F
 -0.428571 -0.000000 -0.333333    0.00680272  14 t-inv F
 -0.000000  0.428571  0.333333    0.00680272  14 t-inv F
  0.000000 -0.428571 -0.333333    0.00680272  14 t-inv F
 -0.428571 -0.000000  0.333333    0.00680272  14 t-inv F
  0.428571  0.000000 -0.333333    0.00680272  14 t-inv F
  0.000000 -0.428571  0.333333    0.00680272  14 t-inv F
 -0.000000  0.428571 -0.333333    0.00680272  14 t-inv F
 -0.142857 -0.142857 -0.333333    0.00680272  15 t-inv F
 -0.142857  0.142857  0.333333    0.00680272  15 t-inv F
  0.142857 -0.142857 -0.333333    0.00680272  15 t-inv F
 -0.142857 -0.142857  0.333333    0.00680272  15 t-inv F
  0.142857  0.142857 -0.333333    0.00680272  15 t-inv F
  0.142857 -0.142857  0.333333    0.00680272  15 t-inv F
 -0.142857  0.142857 -0.333333    0.00680272  15 t-inv F
 -0.285714 -0.142857 -0.333333    0.00680272  16 t-inv F
 -0.142857  0.285714  0.333333    0.00680272  16 t-inv F
  0.142857 -0.285714 -0.333333    0.00680272  16 t-inv F
 -0.285714 -0.142857  0.333333    0.00680272  16 t-inv F
  0.285714  0.142857 -0.333333    0.00680272  16 t-inv F
  0.142857 -0.285714  0.333333    0.00680272  16 t-inv F
 -0.142857  0.285714 -0.333333    0.00680272  16 t-inv F
 -0.285714  0.142857 -0.333333    0.00680272  16 t-inv F
  0.285714 -0.142857  0.333333    0.00680272  16 t-inv F
  0.142857  0.285714 -0.333333    0.00680272  16 t-inv F
 -0.142857 -0.285714  0.333333    0.00680272  16 t-inv F
  0.285714 -0.142857 -0.333333    0.00680272  16 t-inv F
 -0.285714  0.142857  0.333333    0.00680272  16 t-inv F
 -0.142857 -0.285714 -0.333333    0.00680272  16 t-inv F
  0.142857  0.285714  0.333333    0.00680272  16 t-inv F
 -0.428571 -0.142857 -0.333333    0.00680272  17 t-inv F
 -0.142857  0.428571  0.333333    0.00680272  17 t-inv F
  0.142857 -0.428571 -0.333333    0.00680272  17 t-inv F
 -0.428571 -0.142857  0.333333    0.00680272  17 t-inv F
  0.428571  0.142857 -0.333333    0.00680272  17 t-inv F
  0.142857 -0.428571  0.333333    0.00680272  17 t-inv F
 -0.142857  0.428571 -0.333333    0.00680272  17 t-inv F
 -0.428571  0.142857 -0.333333    0.00680272  17 t-inv F
  0.428571 -0.142857  0.333333    0.00680272  17 t-inv F
  0.142857  0.428571 -0.333333    0.00680272  17 t-inv F
 -0.142857 -0.428571  0.333333    0.00680272  17 t-inv F
  0.428571 -0.142857 -0.333333    0.00680272  17 t-inv F
 -0.428571  0.142857  0.333333    0.00680272  17 t-inv F
 -0.142857 -0.428571 -0.333333    0.00680272  17 t-inv F
  0.142857  0.428571  0.333333    0.00680272  17 t-inv F
 -0.285714 -0.285714 -0.333333    0.00680272  18 t-inv F
 -0.285714  0.285714  0.333333    0.00680272  18 t-inv F
  0.285714 -0.285714 -0.333333    0.00680272  18 t-inv F
 -0.285714 -0.285714  0.333333    0.00680272  18 t-inv F
  0.285714  0.285714 -0.333333    0.00680272  18 t-inv F
  0.285714 -0.285714  0.333333    0.00680272  18 t-inv F
 -0.285714  0.285714 -0.333333    0.00680272  18 t-inv F
 -0.428571 -0.285714 -0.333333    0.00680272  19 t-inv F
 -0.285714  0.428571  0.333333    0.00680272  19 t-inv F
  0.285714 -0.428571 -0.333333    0.00680272  19 t-inv F
 -0.428571 -0.285714  0.333333    0.00680272  19 t-inv F
  0.428571  0.285714 -0.333333    0.00680272  19 t-inv F
  0.285714 -0.428571  0.333333    0.00680272  19 t-inv F
 -0.285714  0.428571 -0.333333    0.00680272  19 t-inv F
 -0.428571  0.285714 -0.333333    0.00680272  19 t-inv F
  0.428571 -0.285714  0.333333    0.00680272  19 t-inv F
  0.285714  0.428571 -0.333333    0.00680272  19 t-inv F
 -0.285714 -0.428571  0.333333    0.00680272  19 t-inv F
  0.428571 -0.285714 -0.333333    0.00680272  19 t-inv F
 -0.428571  0.285714  0.333333    0.00680272  19 t-inv F
 -0.285714 -0.428571 -0.333333    0.00680272  19 t-inv F
  0.285714  0.428571  0.333333    0.00680272  19 t-inv F
 -0.428571 -0.428571 -0.333333    0.00680272  20 t-inv F
 -0.428571  0.428571  0.333333    0.00680272  20 t-inv F
  0.428571 -0.428571 -0.333333    0.00680272  20 t-inv F
 -0.428571 -0.428571  0.333333    0.00680272  20 t-inv F
  0.428571  0.428571 -0.333333    0.00680272  20 t-inv F
  0.428571 -0.428571  0.333333    0.00680272  20 t-inv F
 -0.428571  0.428571 -0.333333    0.00680272  20 t-inv F


--------------------------------------------------------------------------------------------------------




 Dimension of arrays:
   k-points           NKPTS =     20   k-points in BZ     NKDIM =    147   number of bands    NBANDS=     48
   number of dos      NEDOS =    301   number of ions     NIONS =      8
   non local maximal  LDIM  =      5   non local SUM 2l+1 LMDIM =     13
   total plane-waves  NPLWV =  36864
   max r-space proj   IRMAX =      1   max aug-charges    IRDMAX=  13589
   dimension x,y,z NGX =    24 NGY =   24 NGZ =   64
   dimension x,y,z NGXF=    48 NGYF=   48 NGZF=  128
   support grid    NGXF=    48 NGYF=   48 NGZF=  128
   ions per type =               1   4   3
   NGX,Y,Z   is equivalent  to a cutoff of  10.95, 10.95, 10.87 a.u.
   NGXF,Y,Z  is equivalent  to a cutoff of  21.90, 21.90, 21.75 a.u.

 SYSTEM =  Be4P3Rb                                 
 POSCAR =  Be4P3Rb.cif                             

 Startparameter for this run:
   NWRITE =      2    write-flag & timer
   PREC   = accura    normal or accurate (medium, high low for compatibility)
   ISTART =      0    job   : 0-new  1-cont  2-samecut
   ICHARG =      2    charge: 1-file 2-atom 10-const
   ISPIN  =      1    spin polarized calculation?
   LNONCOLLINEAR =      F non collinear calculations
   LSORBIT =      F    spin-orbit coupling
   INIWAV =      1    electr: 0-lowe 1-rand  2-diag
   LASPH  =      F    aspherical Exc in radial PAW
 Electronic Relaxation 1
   ENCUT  =  400.0 eV  29.40 Ry    5.42 a.u.   5.94  5.94 15.95*2*pi/ulx,y,z
   ENINI  =  400.0     initial cutoff
   ENAUG  =  780.9 eV  augmentation charge cutoff
   NELM   =     60;   NELMIN=  2; NELMDL= -5     # of ELM steps 
   EDIFF  = 0.1E-04   stopping-criterion for ELM
   LREAL  =      F    real-space projection
   NLSPLINE    = F    spline interpolate recip. space projectors
   LCOMPAT=      F    compatible to vasp.4.4
   GGA_COMPAT  = T    GGA compatible to vasp.4.4-vasp.4.6
   LMAXPAW     = -100 max onsite density
   LMAXMIX     =    2 max onsite mixed and CHGCAR
   VOSKOWN=      0    Vosko Wilk Nusair interpolation
   ROPT   =    0.00000   0.00000   0.00000
 Ionic relaxation
   EDIFFG = 0.1E-03   stopping-criterion for IOM
   NSW    =      0    number of steps for IOM
   NBLOCK =      1;   KBLOCK =      1    inner block; outer block 
   IBRION =     -1    ionic relax: 0-MD 1-quasi-New 2-CG
   NFREE  =      0    steps in history (QN), initial steepest desc. (CG)
   ISIF   =      0    stress and relaxation
   IWAVPR =     10    prediction:  0-non 1-charg 2-wave 3-comb
   ISYM   =      3    0-nonsym 1-usesym 2-fastsym
   LCORR  =      T    Harris-Foulkes like correction to forces

   POTIM  = 0.5000    time-step for ionic-motion
   TEIN   =    0.0    initial temperature
   TEBEG  =    0.0;   TEEND  =   0.0 temperature during run
   SMASS  =  -3.00    Nose mass-parameter (am)
   estimated Nose-frequenzy (Omega)   =  0.10E-29 period in steps = 0.13E+47 mass=  -0.304E-27a.u.
   SCALEE = 1.0000    scale energy and forces
   NPACO  =    256;   APACO  = 10.0  distance and # of slots for P.C.
   PSTRESS=    0.0 pullay stress

  Mass of Ions in am
   POMASS =  85.47  9.01 30.97
  Ionic Valenz
   ZVAL   =   9.00  4.00  5.00
  Atomic Wigner-Seitz radii
   RWIGS  =  -1.00 -1.00 -1.00
  virtual crystal weights 
   VCA    =   1.00  1.00  1.00
   NELECT =      40.0000    total number of electrons
   NUPDOWN=      -1.0000    fix difference up-down

 DOS related values:
   EMIN   =  10.00;   EMAX   =-10.00  energy-range for DOS
   EFERMI =   0.00
   ISMEAR =     0;   SIGMA  =   0.01  broadening in eV -4-tet -1-fermi 0-gaus

 Electronic relaxation 2 (details)
   IALGO  =     58    algorithm
   LDIAG  =      T    sub-space diagonalisation (order eigenvalues)
   LSUBROT=      F    optimize rotation matrix (better conditioning)
   TURBO    =      0    0=normal 1=particle mesh
   IRESTART =      0    0=no restart 2=restart with 2 vectors
   NREBOOT  =      0    no. of reboots
   NMIN     =      0    reboot dimension
   EREF     =   0.00    reference energy to select bands
   IMIX   =      4    mixing-type and parameters
     AMIX     =   0.40;   BMIX     =  1.00
     AMIX_MAG =   1.60;   BMIX_MAG =  1.00
     AMIN     =   0.10
     WC   =   100.;   INIMIX=   1;  MIXPRE=   1;  MAXMIX= -45

 Intra band minimization:
   WEIMIN = 0.0000     energy-eigenvalue tresh-hold
   EBREAK =  0.52E-07  absolut break condition
   DEPER  =   0.30     relativ break condition  

   TIME   =   0.40     timestep for ELM

  volume/ion in A,a.u.               =      16.24       109.62
  Fermi-wavevector in a.u.,A,eV,Ry     =   1.105357  2.088822 16.623787  1.221814
  Thomas-Fermi vector in A             =   2.241843
 
 Write flags
   LWAVE        =      F    write WAVECAR
   LDOWNSAMPLE  =      F    k-point downsampling of WAVECAR
   LCHARG       =      F    write CHGCAR
   LVTOT        =      F    write LOCPOT, total local potential
   LVHAR        =      F    write LOCPOT, Hartree potential only
   LELF         =      F    write electronic localiz. function (ELF)
   LORBIT       =      0    0 simple, 1 ext, 2 COOP (PROOUT), +10 PAW based schemes


 Dipole corrections
   LMONO  =      F    monopole corrections only (constant potential shift)
   LDIPOL =      F    correct potential (dipole corrections)
   IDIPOL =      0    1-x, 2-y, 3-z, 4-all directions 
   EPSILON=  1.0000000 bulk dielectric constant

 Exchange correlation treatment:
   GGA     =    PE    GGA type
   LEXCH   =     8    internal setting for exchange type
   LIBXC   =     F    Libxc                    
   VOSKOWN =     0    Vosko Wilk Nusair interpolation
   EXXOEP  =     0    0=HF, 1=EXX-LHF (local Hartree Fock) 2=EXX OEP
   LHFCALC =     T    Hartree Fock is set to
   LSYMGRAD=     F    symmetrize gradient (conserves proper symmetry)
   PRECFOCK=normal    Normal, Fast or Accurate (Low or Medium for compatibility)
   LRHFCALC=     F    long range Hartree Fock
   LRSCOR  =     F    long range correlation only (use DFT for short range part)
   LTHOMAS =     F    Thomas Fermi screening in HF
   LMODELHF=     F    short range full HF, long range fraction AEXX
   FOCKCORR=     1    mode to apply convergence corrections
   LFOCKACE=     T    use Adeptively-Compressed-Exchange operator
   ENCUT4O =  -1.0   cutoff for four orbital integrals eV
   LMAXFOCK=     4    L truncation for augmentation on plane wave grid
   LMAXFOCKAE=  -1    L truncation for all-electron charge restoration on plane wave grid
   NMAXFOCKAE=   1    number of basis functions for all-electron charge restoration
   LFOCKAEDFT=     F  apply the AE augmentation even for DFT
   NKREDX  =     1    reduce k-point grid by
   NKREDY  =     1    reduce k-point grid by
   NKREDZ  =     1    reduce k-point grid by
   SHIFTRED=     F    shift reduced grid of Gamma
   HFKIDENT=     F    idential grid for each k-point
   ODDONLY =     F    use only odd q-grid points
   EVENONLY=     F    use only even q-grid points
   HFALPHA =   -1.0000 decay constant for conv. correction
   MCALPHA =    0.0000 extent of test-charge in conv. correction in multipole expansion
   AEXX    =    0.2500 exact exchange contribution
   HFSCREEN=    0.2000 screening length (either q_TF or 0.3 A-1)
   HFSCREENC=   0.2000 screening length for correlation (either q_TF or 0.3 A-1)
   HFRCUT  =    0.0000 spherical cutoff for potential kernel
   ALDAX   =    0.7500 LDA exchange part
   AGGAX   =    0.7500 GGA exchange part
   ALDAC   =    1.0000 LDA correlation
   AGGAC   =    1.0000 GGA correlation
   ENCUTFOCK=  -1.0 apply spherical cutoff to Coloumb kernel
   NBANDSGWLOW=     1    first orbital included in HF term
   NBLOCK_FOCK=    64    blocking factor in FOCK_ACC

 Linear response parameters
   LEPSILON=     F    determine dielectric tensor
   LRPA    =     F    only Hartree local field effects (RPA)
   LNABLA  =     F    use nabla operator in PAW spheres
   LVEL    =     F    velocity operator in full k-point grid
   CSHIFT  =0.1000    complex shift for real part using Kramers Kronig
   OMEGAMAX=  -1.0    maximum frequency
   DEG_THRESHOLD= 0.2000000E-02 threshold for treating states as degnerate
   RTIME   =   -0.100 relaxation time in fs
  (WPLASMAI=    0.000 imaginary part of plasma frequency in eV, 0.658/RTIME)
   DFIELD  = 0.0000000 0.0000000 0.0000000 field for delta impulse in time
 
  Optional k-point grid parameters
   LKPOINTS_OPT  =     F    use optional k-point grid
   KPOINTS_OPT_MODE=     1    mode for optional k-point grid
 
 Orbital magnetization related:
   ORBITALMAG=     F  switch on orbital magnetization
   LCHIMAG   =     F  perturbation theory with respect to B field
   DQ        =  0.001000  dq finite difference perturbation B field
   LLRAUG    =     F  two centre corrections for induced B field



--------------------------------------------------------------------------------------------------------


 Static calculation
 charge density and potential will be updated during run
 non-spin polarized calculation
 Conjugate gradient for all bands (Freysoldt, et al. PRB 79, 241103 (2009))
 preconditioned conjugated gradient                                        
 perform sub-space diagonalisation
    before iterative eigenvector-optimisation
 modified Broyden-mixing scheme, WC =      100.0
 initial mixing is a Kerker type mixing with AMIX =  0.4000 and BMIX =      1.0000
 Hartree-type preconditioning will be used
 using additional bands            28
 reciprocal scheme for non local part
 use partial core corrections
 no Harris-corrections to forces 
 use gradient corrections 
 use of overlap-Matrix (Vanderbilt PP)
 Gauss-broadening in eV      SIGMA  =   0.01


--------------------------------------------------------------------------------------------------------


  energy-cutoff  :      400.00
  volume of cell :      129.95
      direct lattice vectors                 reciprocal lattice vectors
     3.644468989  0.000000000 -0.000000000     0.274388396  0.000000000  0.000000000
     0.000000000  3.644468989  0.000000000    -0.000000000  0.274388396  0.000000000
     0.000000000  0.000000000  9.783818614     0.000000000 -0.000000000  0.102209581

  length of vectors
     3.644468989  3.644468989  9.783818614     0.274388396  0.274388396  0.102209581


 
 k-points in units of 2pi/SCALE and weight: Auto                                    
   0.00000000  0.00000000  0.00000000       0.007
   0.03919834  0.00000000  0.00000000       0.027
   0.07839668  0.00000000  0.00000000       0.027
   0.11759503  0.00000000  0.00000000       0.027
   0.03919834  0.03919834  0.00000000       0.027
   0.07839668  0.03919834  0.00000000       0.054
   0.11759503  0.03919834  0.00000000       0.054
   0.07839668  0.07839668  0.00000000       0.027
   0.11759503  0.07839668  0.00000000       0.054
   0.11759503  0.11759503  0.00000000       0.027
   0.00000000  0.00000000  0.03406986       0.014
   0.03919834  0.00000000  0.03406986       0.054
   0.07839668  0.00000000  0.03406986       0.054
   0.11759503  0.00000000  0.03406986       0.054
   0.03919834  0.03919834  0.03406986       0.054
   0.07839668  0.03919834  0.03406986       0.109
   0.11759503  0.03919834  0.03406986       0.109
   0.07839668  0.07839668  0.03406986       0.054
   0.11759503  0.07839668  0.03406986       0.109
   0.11759503  0.11759503  0.03406986       0.054
 
 k-points in reciprocal lattice and weights: Auto                                    
   0.00000000  0.00000000  0.00000000       0.007
   0.14285714  0.00000000  0.00000000       0.027
   0.28571429  0.00000000  0.00000000       0.027
   0.42857143  0.00000000  0.00000000       0.027
   0.14285714  0.14285714  0.00000000       0.027
   0.28571429  0.14285714  0.00000000       0.054
   0.42857143  0.14285714  0.00000000       0.054
   0.28571429  0.28571429  0.00000000       0.027
   0.42857143  0.28571429  0.00000000       0.054
   0.42857143  0.42857143  0.00000000       0.027
   0.00000000  0.00000000  0.33333333       0.014
   0.14285714  0.00000000  0.33333333       0.054
   0.28571429  0.00000000  0.33333333       0.054
   0.42857143  0.00000000  0.33333333       0.054
   0.14285714  0.14285714  0.33333333       0.054
   0.28571429  0.14285714  0.33333333       0.109
   0.42857143  0.14285714  0.33333333       0.109
   0.28571429  0.28571429  0.33333333       0.054
   0.42857143  0.28571429  0.33333333       0.109
   0.42857143  0.42857143  0.33333333       0.054
 
 position of ions in fractional coordinates (direct lattice) 
   0.00000000  0.00000000  0.50000000
   0.00000000  0.50000000  0.14297177
   0.00000000  0.50000000  0.85702823
   0.50000000  0.00000000  0.85702823
   0.50000000  0.00000000  0.14297177
   0.00000000  0.00000000  0.00000000
   0.50000000  0.50000000  0.26060231
   0.50000000  0.50000000  0.73939769
 
 position of ions in cartesian coordinates  (Angst):
   0.00000000  0.00000000  4.89190931
   0.00000000  1.82223449  1.39880989
   0.00000000  1.82223449  8.38500872
   1.82223449  0.00000000  8.38500872
   1.82223449  0.00000000  1.39880989
   0.00000000  0.00000000  0.00000000
   1.82223449  1.82223449  2.54968578
   1.82223449  1.82223449  7.23413284
 


--------------------------------------------------------------------------------------------------------


 k-point   1 :   0.0000 0.0000 0.0000  plane waves:    2347
 k-point   2 :   0.1429 0.0000 0.0000  plane waves:    2332
 k-point   3 :   0.2857 0.0000 0.0000  plane waves:    2352
 k-point   4 :   0.4286 0.0000 0.0000  plane waves:    2340
 k-point   5 :   0.1429 0.1429 0.0000  plane waves:    2349
 k-point   6 :   0.2857 0.1429 0.0000  plane waves:    2350
 k-point   7 :   0.4286 0.1429 0.0000  plane waves:    2364
 k-point   8 :   0.2857 0.2857 0.0000  plane waves:    2364
 k-point   9 :   0.4286 0.2857 0.0000  plane waves:    2387
 k-point  10 :   0.4286 0.4286 0.0000  plane waves:    2378
 k-point  11 :   0.0000 0.0000 0.3333  plane waves:    2360
 k-point  12 :   0.1429 0.0000 0.3333  plane waves:    2351
 k-point  13 :   0.2857 0.0000 0.3333  plane waves:    2347
 k-point  14 :   0.4286 0.0000 0.3333  plane waves:    2351
 k-point  15 :   0.1429 0.1429 0.3333  plane waves:    2360
 k-point  16 :   0.2857 0.1429 0.3333  plane waves:    2357
 k-point  17 :   0.4286 0.1429 0.3333  plane waves:    2362
 k-point  18 :   0.2857 0.2857 0.3333  plane waves:    2361
 k-point  19 :   0.4286 0.2857 0.3333  plane waves:    2373
 k-point  20 :   0.4286 0.4286 0.3333  plane waves:    2380

 maximum and minimum number of plane-waves per node :      2387     2332

 maximum number of plane-waves:      2387
 maximum index in each direction: 
   IXMAX=    5   IYMAX=    5   IZMAX=   15
   IXMIN=   -6   IYMIN=   -6   IZMIN=  -16


 serial   3D FFT for wavefunctions
 parallel 3D FFT for charge:
    minimum data exchange during FFTs selected (reduces bandwidth)


 FFT grid for exact exchange (Hartree Fock) 
  NGX = 18; NGY = 18; NGZ = 48

 
 Radii for the augmentation spheres in the non-local exchange
 for species   1 augmentation radius   1.387 (default was   1.110)
       energy cutoff for augmentation   1600.0
 for species   2 augmentation radius   0.794 (default was   0.635)
       energy cutoff for augmentation   1600.0
 for species   3 augmentation radius   1.198 (default was   0.959)
       energy cutoff for augmentation   1600.0
 Maximum index for augmentation-charges in exchange          1357
  SETUP_FOCK is finished

 total amount of memory used by VASP MPI-rank0    53859. kBytes
=======================================================================

   base      :      30000. kBytes
   nonl-proj :      15283. kBytes
   fftplans  :        570. kBytes
   grid      :       2279. kBytes
   one-center:         64. kBytes
   HF        :        101. kBytes
   nonlr-proj:        771. kBytes
   wavefun   :       4791. kBytes
 
     INWAV:  cpu time      0.0001: real time      0.0006
 Broyden mixing: mesh for mixing (old mesh)
   NGX = 11   NGY = 11   NGZ = 31
  (NGX  = 48   NGY  = 48   NGZ  =128)
  gives a total of   3751 points

 initial charge density was supplied:
 charge density of overlapping atoms calculated
 number of electron      40.0000000 magnetization 
 keeping initial charge density in first step


--------------------------------------------------------------------------------------------------------


 Maximum index for augmentation-charges           669 (set IRDMAX)


--------------------------------------------------------------------------------------------------------


 First call to EWALD:  gamma=   0.350
 Maximum number of real-space cells 4x 4x 2
 Maximum number of reciprocal cells 2x 2x 5

    FEWALD:  cpu time      0.0007: real time      0.0007


--------------------------------------- Iteration      1(   1)  ---------------------------------------


    POTLOK:  cpu time      0.9331: real time      1.0913
    SETDIJ:  cpu time      0.0060: real time      0.0060
    TRIAL :  cpu time      2.2682: real time      1.4351
    CORREC:  cpu time      0.0005: real time      0.0005
    --------------------------------------------
      LOOP:  cpu time      3.2151: real time      2.5402

 eigenvalue-minimisations  :  1944
 total energy-change (2. order) :-0.8686242E+03  (-0.1945902E+04)
 number of electron      40.0000000 magnetization 
 augmentation part       40.0000000 magnetization 

 Free energy of the ion-electron system (eV)
  ---------------------------------------------------
  alpha Z        PSCENC =       109.49705624
  Ewald energy   TEWEN  =     -1572.65416475
  -Hartree energ DENC   =      -452.90696352
  -exchange      EXHF   =         0.00000000
  -V(xc)+E(xc)   XCENC  =       108.76794538
  PAW double counting   =      1464.19494518    -2619.65879499
  entropy T*S    EENTRO =        -0.00000000
  eigenvalues    EBANDS =      -684.23292639
  atomic energy  EATOM  =      2778.36867015
  ---------------------------------------------------
  free energy    TOTEN  =      -868.62423269 eV

  energy without entropy =     -868.62423269  energy(sigma->0) =     -868.62423269
  exchange ACFDT corr.  =         0.00000000  see jH, gK, PRB 81, 115126


--------------------------------------------------------------------------------------------------------




--------------------------------------- Iteration      1(   2)  ---------------------------------------


    TRIAL :  cpu time      1.3863: real time      0.8936
    CORREC:  cpu time      0.0003: real time      0.0003
    --------------------------------------------
      LOOP:  cpu time      1.3872: real time      0.8948

 eigenvalue-minimisations  :  1944
 total energy-change (2. order) :-0.2142406E+03  (-0.2037328E+03)
 number of electron      40.0000000 magnetization 
 augmentation part       40.0000000 magnetization 

 Free energy of the ion-electron system (eV)
  ---------------------------------------------------
  alpha Z        PSCENC =       109.49705624
  Ewald energy   TEWEN  =     -1572.65416475
  -Hartree energ DENC   =      -452.90696352
  -exchange      EXHF   =         0.00000000
  -V(xc)+E(xc)   XCENC  =       108.76794538
  PAW double counting   =      1464.19494518    -2619.65879499
  entropy T*S    EENTRO =        -0.00000000
  eigenvalues    EBANDS =      -898.47355501
  atomic energy  EATOM  =      2778.36867015
  ---------------------------------------------------
  free energy    TOTEN  =     -1082.86486131 eV

  energy without entropy =    -1082.86486131  energy(sigma->0) =    -1082.86486131
  exchange ACFDT corr.  =         0.00000000  see jH, gK, PRB 81, 115126


--------------------------------------------------------------------------------------------------------




--------------------------------------- Iteration      1(   3)  ---------------------------------------


    TRIAL :  cpu time      2.2422: real time      1.4881
    CORREC:  cpu time      0.0002: real time      0.0002
    --------------------------------------------
      LOOP:  cpu time      2.2430: real time      1.4891

 eigenvalue-minimisations  :  3552
 total energy-change (2. order) :-0.1535456E+02  (-0.1529803E+02)
 number of electron      40.0000000 magnetization 
 augmentation part       40.0000000 magnetization 

 Free energy of the ion-electron system (eV)
  ---------------------------------------------------
  alpha Z        PSCENC =       109.49705624
  Ewald energy   TEWEN  =     -1572.65416475
  -Hartree energ DENC   =      -452.90696352
  -exchange      EXHF   =         0.00000000
  -V(xc)+E(xc)   XCENC  =       108.76794538
  PAW double counting   =      1464.19494518    -2619.65879499
  entropy T*S    EENTRO =        -0.00000000
  eigenvalues    EBANDS =      -913.82811173
  atomic energy  EATOM  =      2778.36867015
  ---------------------------------------------------
  free energy    TOTEN  =     -1098.21941803 eV

  energy without entropy =    -1098.21941803  energy(sigma->0) =    -1098.21941803
  exchange ACFDT corr.  =         0.00000000  see jH, gK, PRB 81, 115126


--------------------------------------------------------------------------------------------------------




--------------------------------------- Iteration      1(   4)  ---------------------------------------


    TRIAL :  cpu time      1.5296: real time      0.9953
    CORREC:  cpu time      0.0002: real time      0.0002
    --------------------------------------------
      LOOP:  cpu time      1.5304: real time      0.9963

 eigenvalue-minimisations  :  2184
 total energy-change (2. order) :-0.3794659E+00  (-0.3794515E+00)
 number of electron      40.0000000 magnetization 
 augmentation part       40.0000000 magnetization 

 Free energy of the ion-electron system (eV)
  ---------------------------------------------------
  alpha Z        PSCENC =       109.49705624
  Ewald energy   TEWEN  =     -1572.65416475
  -Hartree energ DENC   =      -452.90696352
  -exchange      EXHF   =         0.00000000
  -V(xc)+E(xc)   XCENC  =       108.76794538
  PAW double counting   =      1464.19494518    -2619.65879499
  entropy T*S    EENTRO =        -0.00000000
  eigenvalues    EBANDS =      -914.20757764
  atomic energy  EATOM  =      2778.36867015
  ---------------------------------------------------
  free energy    TOTEN  =     -1098.59888394 eV

  energy without entropy =    -1098.59888394  energy(sigma->0) =    -1098.59888394
  exchange ACFDT corr.  =         0.00000000  see jH, gK, PRB 81, 115126


--------------------------------------------------------------------------------------------------------




--------------------------------------- Iteration      1(   5)  ---------------------------------------


    POTLOK:  cpu time      0.0496: real time      0.0354
    SETDIJ:  cpu time      0.0575: real time      0.0575
    TRIAL :  cpu time      6.7361: real time      5.2890
    CORREC:  cpu time      0.0003: real time      0.0003
    CHARGE:  cpu time      0.0895: real time      0.0913
    --------------------------------------------
      LOOP:  cpu time      6.9336: real time      5.4743

 eigenvalue-minimisations  :  2880
 total energy-change (2. order) : 0.1058159E+04  (-0.5490586E+00)
 number of electron      40.0000142 magnetization 
 augmentation part        4.9992994 magnetization 

 Free energy of the ion-electron system (eV)
  ---------------------------------------------------
  alpha Z        PSCENC =       109.49705624
  Ewald energy   TEWEN  =     -1572.65416475
  -Hartree energ DENC   =      -452.90696352
  -exchange      EXHF   =        99.07378979
  -V(xc)+E(xc)   XCENC  =        82.84157085
  PAW double counting   =      1486.82630755    -1593.21129494
  entropy T*S    EENTRO =        -0.00000000
  eigenvalues    EBANDS =      -978.27521710
  atomic energy  EATOM  =      2778.36867015
  ---------------------------------------------------
  free energy    TOTEN  =       -40.44024573 eV

  energy without entropy =      -40.44024573  energy(sigma->0) =      -40.44024573
  exchange ACFDT corr.  =         0.00000000  see jH, gK, PRB 81, 115126


--------------------------------------------------------------------------------------------------------




--------------------------------------- Iteration      1(   6)  ---------------------------------------


    POTLOK:  cpu time      0.0432: real time      0.0331
    SETDIJ:  cpu time      0.0576: real time      0.0576
    TRIAL :  cpu time      5.0417: real time      4.1916
    CORREC:  cpu time      4.9037: real time      3.9650
    CHARGE:  cpu time      0.0831: real time      0.0831
    --------------------------------------------
      LOOP:  cpu time     10.1302: real time      8.3321

 eigenvalue-minimisations  :     0
 total energy-change (2. order) : 0.2792656E+01  (-0.1225729E+01)
 number of electron      40.0000142 magnetization 
 augmentation part        5.1148755 magnetization 

 Free energy of the ion-electron system (eV)
  ---------------------------------------------------
  alpha Z        PSCENC =       109.49705624
  Ewald energy   TEWEN  =     -1572.65416475
  -Hartree energ DENC   =      -475.39000387
  -exchange      EXHF   =        98.56076685
  -V(xc)+E(xc)   XCENC  =        84.66700895
  PAW double counting   =      3750.14327052    -3853.65817594
  entropy T*S    EENTRO =        -0.00000000
  eigenvalues    EBANDS =      -957.18201743
  atomic energy  EATOM  =      2778.36867015
  ---------------------------------------------------
  free energy    TOTEN  =       -37.64758927 eV

  energy without entropy =      -37.64758927  energy(sigma->0) =      -37.64758927
  exchange ACFDT corr.  =         0.00000000  see jH, gK, PRB 81, 115126


--------------------------------------------------------------------------------------------------------




--------------------------------------- Iteration      1(   7)  ---------------------------------------


    POTLOK:  cpu time      0.0450: real time      0.0350
    SETDIJ:  cpu time      0.0537: real time      0.0537
    TRIAL :  cpu time      5.0170: real time      3.9884
    CORREC:  cpu time      4.4264: real time      3.7309
    CHARGE:  cpu time      0.0838: real time      0.0837
    --------------------------------------------
      LOOP:  cpu time      9.6267: real time      7.8929

 eigenvalue-minimisations  :     0
 total energy-change (2. order) :-0.1228285E+01  (-0.1102638E+00)
 number of electron      40.0000142 magnetization 
 augmentation part        5.1097350 magnetization 

 Free energy of the ion-electron system (eV)
  ---------------------------------------------------
  alpha Z        PSCENC =       109.49705624
  Ewald energy   TEWEN  =     -1572.65416475
  -Hartree energ DENC   =      -468.30575136
  -exchange      EXHF   =        97.91564275
  -V(xc)+E(xc)   XCENC  =        84.30334791
  PAW double counting   =      4265.14533683    -4368.60622223
  entropy T*S    EENTRO =        -0.00000000
  eigenvalues    EBANDS =      -964.53978940
  atomic energy  EATOM  =      2778.36867015
  ---------------------------------------------------
  free energy    TOTEN  =       -38.87587384 eV

  energy without entropy =      -38.87587384  energy(sigma->0) =      -38.87587384
  exchange ACFDT corr.  =         0.00000000  see jH, gK, PRB 81, 115126


--------------------------------------------------------------------------------------------------------




--------------------------------------- Iteration      1(   8)  ---------------------------------------


    POTLOK:  cpu time      0.0481: real time      0.0340
    SETDIJ:  cpu time      0.0546: real time      0.0546
    TRIAL :  cpu time      5.0037: real time      3.9783
    CORREC:  cpu time      4.4466: real time      3.7384
    CHARGE:  cpu time      0.0831: real time      0.0831
    --------------------------------------------
      LOOP:  cpu time      9.6367: real time      7.8893

 eigenvalue-minimisations  :     0
 total energy-change (2. order) :-0.1102621E+00  (-0.9511760E-01)
 number of electron      40.0000142 magnetization 
 augmentation part        5.1137328 magnetization 

 Free energy of the ion-electron system (eV)
  ---------------------------------------------------
  alpha Z        PSCENC =       109.49705624
  Ewald energy   TEWEN  =     -1572.65416475
  -Hartree energ DENC   =      -466.39189250
  -exchange      EXHF   =        97.76123539
  -V(xc)+E(xc)   XCENC  =        84.21224071
  PAW double counting   =      4265.77271592    -4368.76051236
  entropy T*S    EENTRO =         0.00000000
  eigenvalues    EBANDS =      -966.79148476
  atomic energy  EATOM  =      2778.36867015
  ---------------------------------------------------
  free energy    TOTEN  =       -38.98613594 eV

  energy without entropy =      -38.98613594  energy(sigma->0) =      -38.98613594
  exchange ACFDT corr.  =         0.00000000  see jH, gK, PRB 81, 115126


--------------------------------------------------------------------------------------------------------




--------------------------------------- Iteration      1(   9)  ---------------------------------------


    POTLOK:  cpu time      0.0443: real time      0.0337
    SETDIJ:  cpu time      0.0545: real time      0.0545
    TRIAL :  cpu time      5.7878: real time      4.3706
    CORREC:  cpu time      4.4512: real time      3.7379
    CHARGE:  cpu time      0.0853: real time      0.0853
    --------------------------------------------
      LOOP:  cpu time     10.4240: real time      8.2831

 eigenvalue-minimisations  :     0
 total energy-change (2. order) :-0.9507052E-01  (-0.2654201E-01)
 number of electron      40.0000142 magnetization 
 augmentation part        5.1161345 magnetization 

 Free energy of the ion-electron system (eV)
  ---------------------------------------------------
  alpha Z        PSCENC =       109.49705624
  Ewald energy   TEWEN  =     -1572.65416475
  -Hartree energ DENC   =      -465.03406940
  -exchange      EXHF   =        97.64565267
  -V(xc)+E(xc)   XCENC  =        84.15780066
  PAW double counting   =      4204.14062390    -4307.26832333
  entropy T*S    EENTRO =        -0.00000000
  eigenvalues    EBANDS =      -967.93445262
  atomic energy  EATOM  =      2778.36867015
  ---------------------------------------------------
  free energy    TOTEN  =       -39.08120646 eV

  energy without entropy =      -39.08120646  energy(sigma->0) =      -39.08120646
  exchange ACFDT corr.  =         0.00000000  see jH, gK, PRB 81, 115126


--------------------------------------------------------------------------------------------------------




--------------------------------------- Iteration      1(  10)  ---------------------------------------


    POTLOK:  cpu time      0.0460: real time      0.0353
    SETDIJ:  cpu time      0.0548: real time      0.0548
    TRIAL :  cpu time      5.3994: real time      4.1722
    CORREC:  cpu time      4.8383: real time      3.9457
    CHARGE:  cpu time      0.0836: real time      0.0836
    --------------------------------------------
      LOOP:  cpu time     10.4228: real time      8.2925

 eigenvalue-minimisations  :     0
 total energy-change (2. order) :-0.2653747E-01  (-0.8537210E-02)
 number of electron      40.0000142 magnetization 
 augmentation part        5.1161299 magnetization 

 Free energy of the ion-electron system (eV)
  ---------------------------------------------------
  alpha Z        PSCENC =       109.49705624
  Ewald energy   TEWEN  =     -1572.65416475
  -Hartree energ DENC   =      -465.39071280
  -exchange      EXHF   =        97.62967326
  -V(xc)+E(xc)   XCENC  =        84.15881212
  PAW double counting   =      4160.40353053    -4263.65963273
  entropy T*S    EENTRO =        -0.00000000
  eigenvalues    EBANDS =      -967.46097596
  atomic energy  EATOM  =      2778.36867015
  ---------------------------------------------------
  free energy    TOTEN  =       -39.10774393 eV

  energy without entropy =      -39.10774393  energy(sigma->0) =      -39.10774393
  exchange ACFDT corr.  =         0.00000000  see jH, gK, PRB 81, 115126


--------------------------------------------------------------------------------------------------------




--------------------------------------- Iteration      1(  11)  ---------------------------------------


    POTLOK:  cpu time      0.0470: real time      0.0349
    SETDIJ:  cpu time      0.0544: real time      0.0544
    TRIAL :  cpu time      5.3891: real time      4.1699
    CORREC:  cpu time      4.7652: real time      3.9284
    CHARGE:  cpu time      0.0835: real time      0.0835
    --------------------------------------------
      LOOP:  cpu time     10.3402: real time      8.2722

 eigenvalue-minimisations  :     0
 total energy-change (2. order) :-0.8537215E-02  (-0.3124539E-02)
 number of electron      40.0000142 magnetization 
 augmentation part        5.1166005 magnetization 

 Free energy of the ion-electron system (eV)
  ---------------------------------------------------
  alpha Z        PSCENC =       109.49705624
  Ewald energy   TEWEN  =     -1572.65416475
  -Hartree energ DENC   =      -465.88808691
  -exchange      EXHF   =        97.62713797
  -V(xc)+E(xc)   XCENC  =        84.16216652
  PAW double counting   =      4129.59214144    -4232.84226250
  entropy T*S    EENTRO =        -0.00000000
  eigenvalues    EBANDS =      -966.97893930
  atomic energy  EATOM  =      2778.36867015
  ---------------------------------------------------
  free energy    TOTEN  =       -39.11628114 eV

  energy without entropy =      -39.11628114  energy(sigma->0) =      -39.11628114
  exchange ACFDT corr.  =         0.00000000  see jH, gK, PRB 81, 115126


--------------------------------------------------------------------------------------------------------




--------------------------------------- Iteration      1(  12)  ---------------------------------------


    POTLOK:  cpu time      0.0497: real time      0.0360
    SETDIJ:  cpu time      0.0546: real time      0.0546
    TRIAL :  cpu time      5.4672: real time      4.4097
    CORREC:  cpu time      4.8170: real time      3.9295
    CHARGE:  cpu time      0.0834: real time      0.0834
    --------------------------------------------
      LOOP:  cpu time     10.4724: real time      8.5141

 eigenvalue-minimisations  :     0
 total energy-change (2. order) :-0.3124537E-02  (-0.1336980E-02)
 number of electron      40.0000142 magnetization 
 augmentation part        5.1177640 magnetization 

 Free energy of the ion-electron system (eV)
  ---------------------------------------------------
  alpha Z        PSCENC =       109.49705624
  Ewald energy   TEWEN  =     -1572.65416475
  -Hartree energ DENC   =      -466.00063116
  -exchange      EXHF   =        97.62163738
  -V(xc)+E(xc)   XCENC  =        84.15925616
  PAW double counting   =      4107.72440606    -4210.95637666
  entropy T*S    EENTRO =        -0.00000000
  eigenvalues    EBANDS =      -966.87925911
  atomic energy  EATOM  =      2778.36867015
  ---------------------------------------------------
  free energy    TOTEN  =       -39.11940568 eV

  energy without entropy =      -39.11940568  energy(sigma->0) =      -39.11940568
  exchange ACFDT corr.  =         0.00000000  see jH, gK, PRB 81, 115126


--------------------------------------------------------------------------------------------------------




--------------------------------------- Iteration      1(  13)  ---------------------------------------


    POTLOK:  cpu time      0.0452: real time      0.0356
    SETDIJ:  cpu time      0.0545: real time      0.0545
    TRIAL :  cpu time      5.9238: real time      4.4245
    CORREC:  cpu time      4.3943: real time      3.7196
    CHARGE:  cpu time      0.0833: real time      0.0833
    --------------------------------------------
      LOOP:  cpu time     10.5017: real time      8.3185

 eigenvalue-minimisations  :     0
 total energy-change (2. order) :-0.1336676E-02  (-0.5049756E-03)
 number of electron      40.0000142 magnetization 
 augmentation part        5.1187589 magnetization 

 Free energy of the ion-electron system (eV)
  ---------------------------------------------------
  alpha Z        PSCENC =       109.49705624
  Ewald energy   TEWEN  =     -1572.65416475
  -Hartree energ DENC   =      -465.83283363
  -exchange      EXHF   =        97.61327153
  -V(xc)+E(xc)   XCENC  =        84.15246673
  PAW double counting   =      4092.62758945    -4195.86459628
  entropy T*S    EENTRO =        -0.00000000
  eigenvalues    EBANDS =      -967.02820180
  atomic energy  EATOM  =      2778.36867015
  ---------------------------------------------------
  free energy    TOTEN  =       -39.12074236 eV

  energy without entropy =      -39.12074236  energy(sigma->0) =      -39.12074236
  exchange ACFDT corr.  =         0.00000000  see jH, gK, PRB 81, 115126


--------------------------------------------------------------------------------------------------------




--------------------------------------- Iteration      1(  14)  ---------------------------------------


    POTLOK:  cpu time      0.0455: real time      0.0348
    SETDIJ:  cpu time      0.0548: real time      0.0548
    TRIAL :  cpu time      5.4212: real time      4.1898
    CORREC:  cpu time      4.4351: real time      3.7366
    CHARGE:  cpu time      0.0831: real time      0.0831
    --------------------------------------------
      LOOP:  cpu time     10.0404: real time      8.1003

 eigenvalue-minimisations  :     0
 total energy-change (2. order) :-0.5047976E-03  (-0.1705508E-03)
 number of electron      40.0000142 magnetization 
 augmentation part        5.1192389 magnetization 

 Free energy of the ion-electron system (eV)
  ---------------------------------------------------
  alpha Z        PSCENC =       109.49705624
  Ewald energy   TEWEN  =     -1572.65416475
  -Hartree energ DENC   =      -465.69565074
  -exchange      EXHF   =        97.60772794
  -V(xc)+E(xc)   XCENC  =        84.14777868
  PAW double counting   =      4085.43883443    -4188.69165568
  entropy T*S    EENTRO =        -0.00000000
  eigenvalues    EBANDS =      -967.13984344
  atomic energy  EATOM  =      2778.36867015
  ---------------------------------------------------
  free energy    TOTEN  =       -39.12124715 eV

  energy without entropy =      -39.12124715  energy(sigma->0) =      -39.12124715
  exchange ACFDT corr.  =         0.00000000  see jH, gK, PRB 81, 115126


--------------------------------------------------------------------------------------------------------




--------------------------------------- Iteration      1(  15)  ---------------------------------------


    POTLOK:  cpu time      0.0464: real time      0.0344
    SETDIJ:  cpu time      0.0548: real time      0.0548
    TRIAL :  cpu time      5.4056: real time      4.1686
    CORREC:  cpu time      4.5536: real time      3.9712
    CHARGE:  cpu time      0.0834: real time      0.0834
    --------------------------------------------
      LOOP:  cpu time     10.1446: real time      8.3135

 eigenvalue-minimisations  :     0
 total energy-change (2. order) :-0.1703801E-03  (-0.6498303E-04)
 number of electron      40.0000142 magnetization 
 augmentation part        5.1195584 magnetization 

 Free energy of the ion-electron system (eV)
  ---------------------------------------------------
  alpha Z        PSCENC =       109.49705624
  Ewald energy   TEWEN  =     -1572.65416475
  -Hartree energ DENC   =      -465.68015141
  -exchange      EXHF   =        97.60576454
  -V(xc)+E(xc)   XCENC  =        84.14625998
  PAW double counting   =      4083.63823807    -4186.89543196
  entropy T*S    EENTRO =        -0.00000000
  eigenvalues    EBANDS =      -967.14765840
  atomic energy  EATOM  =      2778.36867015
  ---------------------------------------------------
  free energy    TOTEN  =       -39.12141753 eV

  energy without entropy =      -39.12141753  energy(sigma->0) =      -39.12141753
  exchange ACFDT corr.  =         0.00000000  see jH, gK, PRB 81, 115126


--------------------------------------------------------------------------------------------------------




--------------------------------------- Iteration      1(  16)  ---------------------------------------


    POTLOK:  cpu time      0.0454: real time      0.0340
    SETDIJ:  cpu time      0.0547: real time      0.0546
    TRIAL :  cpu time      4.9898: real time      4.1719
    CORREC:  cpu time      4.4096: real time      3.7326
    CHARGE:  cpu time      0.0835: real time      0.0835
    --------------------------------------------
      LOOP:  cpu time      9.5837: real time      8.0776

 eigenvalue-minimisations  :     0
 total energy-change (2. order) :-0.6482865E-04  (-0.2408613E-04)
 number of electron      40.0000142 magnetization 
 augmentation part        5.1197842 magnetization 

 Free energy of the ion-electron system (eV)
  ---------------------------------------------------
  alpha Z        PSCENC =       109.49705624
  Ewald energy   TEWEN  =     -1572.65416475
  -Hartree energ DENC   =      -465.69504118
  -exchange      EXHF   =        97.60542858
  -V(xc)+E(xc)   XCENC  =        84.14609538
  PAW double counting   =      4083.98448762    -4187.24195085
  entropy T*S    EENTRO =        -0.00000000
  eigenvalues    EBANDS =      -967.13206356
  atomic energy  EATOM  =      2778.36867015
  ---------------------------------------------------
  free energy    TOTEN  =       -39.12148236 eV

  energy without entropy =      -39.12148236  energy(sigma->0) =      -39.12148236
  exchange ACFDT corr.  =         0.00000000  see jH, gK, PRB 81, 115126


--------------------------------------------------------------------------------------------------------




--------------------------------------- Iteration      1(  17)  ---------------------------------------


    POTLOK:  cpu time      0.0448: real time      0.0342
    SETDIJ:  cpu time      0.0545: real time      0.0545
    TRIAL :  cpu time      5.0021: real time      4.1791
    CORREC:  cpu time      4.8116: real time      3.9284
    CHARGE:  cpu time      0.0835: real time      0.0834
    --------------------------------------------
      LOOP:  cpu time      9.9970: real time      8.2807

 eigenvalue-minimisations  :     0
 total energy-change (2. order) :-0.2395780E-04  (-0.8960007E-05)
 number of electron      40.0000142 magnetization 
 augmentation part        5.1199154 magnetization 

 Free energy of the ion-electron system (eV)
  ---------------------------------------------------
  alpha Z        PSCENC =       109.49705624
  Ewald energy   TEWEN  =     -1572.65416475
  -Hartree energ DENC   =      -465.68909369
  -exchange      EXHF   =        97.60537799
  -V(xc)+E(xc)   XCENC  =        84.14606148
  PAW double counting   =      4084.85373580    -4188.11117905
  entropy T*S    EENTRO =        -0.00000000
  eigenvalues    EBANDS =      -967.13797050
  atomic energy  EATOM  =      2778.36867015
  ---------------------------------------------------
  free energy    TOTEN  =       -39.12150632 eV

  energy without entropy =      -39.12150632  energy(sigma->0) =      -39.12150632
  exchange ACFDT corr.  =         0.00000000  see jH, gK, PRB 81, 115126


--------------------------------------------------------------------------------------------------------




--------------------------------------- Iteration      1(  18)  ---------------------------------------


    POTLOK:  cpu time      0.0497: real time      0.0370
    SETDIJ:  cpu time      0.0550: real time      0.0550
    TRIAL :  cpu time      5.0944: real time      4.0166
    CORREC:  cpu time      4.9165: real time      3.9758
    EDDIAG:  cpu time      4.4810: real time      3.6754
    CHARGE:  cpu time      0.0834: real time      0.0834
    --------------------------------------------
      LOOP:  cpu time     14.6809: real time     11.8445

 eigenvalue-minimisations  :     0
 total energy-change (2. order) :-0.8873616E-05  (-0.3685725E-05)
 number of electron      40.0000142 magnetization 
 augmentation part        5.1199705 magnetization 

 Free energy of the ion-electron system (eV)
  ---------------------------------------------------
  alpha Z        PSCENC =       109.49705624
  Ewald energy   TEWEN  =     -1572.65416475
  -Hartree energ DENC   =      -465.67480723
  -exchange      EXHF   =        97.60532304
  -V(xc)+E(xc)   XCENC  =        84.14593955
  PAW double counting   =      4085.47759633    -4188.73544399
  entropy T*S    EENTRO =        -0.00000000
  eigenvalues    EBANDS =      -967.15166465
  atomic energy  EATOM  =      2778.36867015
  ---------------------------------------------------
  free energy    TOTEN  =       -39.12151519 eV

  energy without entropy =      -39.12151519  energy(sigma->0) =      -39.12151519
  exchange ACFDT corr.  =         0.00000000  see jH, gK, PRB 81, 115126


--------------------------------------------------------------------------------------------------------


  average scaling for gradient   0.7547


 average (electrostatic) potential at core
  the test charge radii are     1.1097  0.6353  0.9587
  (the norm of the test charge is              1.0000)
       1 -31.0910       2  -9.3193       3  -9.3193       4  -9.3193       5  -9.3193
       6 -80.9110       7 -79.7710       8 -79.7710
 
 
 
 E-fermi :   3.8008     XC(G=0):  -7.9218     alpha+bet :-10.8330

 Fermi energy:         3.8007940297

 k-point     1 :       0.0000    0.0000    0.0000
  band No.  band energies     occupation 
      1    -102.0114      2.00000
      2    -102.0111      2.00000
      3    -102.0065      2.00000
      4    -102.0060      2.00000
      5     -25.7063      2.00000
      6     -10.6279      2.00000
      7      -9.4364      2.00000
      8      -8.2608      2.00000
      9      -8.2608      2.00000
     10      -7.9237      2.00000
     11      -7.6321      2.00000
     12      -1.7435      2.00000
     13      -0.4041      2.00000
     14      -0.4041      2.00000
     15       0.6633      2.00000
     16       1.2687      2.00000
     17       1.2687      2.00000
[...]
  378        set_dd_paw                            0.048853                            1   3
  379          m_sumb_d                              0.048827                          7   4
  380        fft3d_mpi                             0.012475                           11   3
  381          fftbrc_mpi                            0.012143                         11   4
  382            fftbas_plan_mpi                       0.012132                       11   5
  383              map_forward                           0.004201                     10   6
  384                map_gather                            0.000088                    5   7
  385                m_alltoallv_z                         0.000116                    5   7
  386                map_scatter                           0.003931                    5   7
  387              map_backward                          0.007606                     12   6
  388                map_gather                            0.000108                    6   7
  389                m_alltoallv_z                         0.000143                    6   7
  390                map_scatter                           0.007278                    6   7
  391        ggaall_grid                           0.019647                            1   3
  392        m_sumb_d                              0.000227                            5   3
  393        forhar                                0.000701                            1   3
  394          m_sumb_d                              0.000549                          1   4
  395        m_bcast_d                             0.000130                            2   3
  396      potlok                                0.035136                              1   2
  397        fft3d_mpi                             0.014135                           13   3
  398          fftbrc_mpi                            0.013732                         13   4
  399            fftbas_plan_mpi                       0.013724                       13   5
  400              map_forward                           0.005319                     14   6
  401                map_gather                            0.000139                    8   7
  402                m_alltoallv_z                         0.000164                    8   7
  403                map_scatter                           0.004940                    8   7
  404              map_backward                          0.008014                     12   6
  405                map_gather                            0.000100                    6   7
  406                m_alltoallv_z                         0.000126                    6   7
  407                map_scatter                           0.007710                    6   7
  408        ggaall_grid                           0.019250                            1   3
  409        m_sumb_d                              0.000449                            5   3
  410        pothar                                0.000360                            1   3
  411          m_sumb_d                              0.000292                          1   4
  412        m_bcast_d                             0.000011                            1   3
  413      potlok_metagga                        0.000000                              1   2
  414      set_dd_magatom                        0.000003                              1   2
  415      set_dd_paw                            0.054125                              1   2
  416        m_sumb_d                              0.054110                            7   3
  417      m_bcast_d                             0.000101                              2   2
 
 Flat profile
 ============
 
             routine name                   CPU           calls
 ---------------------------------------------------------------
 fock_fwd                               63.321343         560
 phaser_hf                              14.789296       85260
 total_time                              7.976924           1
 fock_bck                                7.677114         560
 redis_pw                                5.656304        6063
 acc_cufft_makeplan                      4.260971          55
 m_sumb_d                                4.242513        4744
 init_acc                                4.164271           1
 edwav                                   2.940315          26
 dllmm_trans_eccp_nl_fock_acc            1.730927        8820
 eddav                                   1.510588           5
 redis_proj                              1.479665       10084
 rpromu_hf_acc                           1.434510       94080
 m_alltoall_d                            1.433336       23807
 lincom                                  1.335690        1720
 fock_set_gfac_vkpt                      1.259721       85260
 lapack                                  1.259090         721
 batched_fft                             1.101947      170520
 depsum_sym                              1.082802          27
 m_alltoallv_z                           1.075563         499
 fock_all_dblbuf                         0.977835          28
 racc0mu_hf_acc                          0.974218       85260
 soft_charge_sym                         0.957708          27
 fft3d                                   0.715518       95091
 ggaall_grid                             0.589377          30
 apply_gfac_exchange_mu_acc              0.547618       82320
 fock_force                              0.499797           1
 m_bcast_d                               0.487454        1475
 fftwav                                  0.427095       15601
 fock_set_fsg                            0.410795           2
 pw_charge_trace_mu_acc                  0.379700       85260
 vhamil_trace_mu_acc                     0.375402       82320
 map_scatter                             0.355783         499
 fft_and_gather                          0.354817         580
 eccp                                    0.327215        2280
 vnlac0_acc                              0.318323        2361
 brgrid                                  0.310066           1
 depsum_two_bands_rholm_trace_m          0.299143       41160
 depsum_two_bands_rholm_trace_m          0.275436       38220
 calc_dllmm_trans_and_overl_foc          0.195962       41160
 calc_dllmm_trans_and_overl_foc          0.181685       38220
 orthch                                  0.142749          27
 eddiag                                  0.125667          14
 pw_charge                               0.099669        3969
 reduce                                  0.097394         560
 fock_charge_mu                          0.096928       85260
 choleski                                0.096814         560
 w1_copy                                 0.094671       16563
 orth1                                   0.081034        3843
 m_bcast_z                               0.070928        1681
 overl                                   0.070188        2842
 phase                                   0.054596        1001
 wrk_allocate                            0.052542           1
 proall                                  0.042439           1
 fft3d_mpi                               0.041135       79933
 proj1_acc                               0.040545         560
 contraction                             0.038290        8820
 elmin_all                               0.036889           1
 potlok                                  0.033994          29
 overl1                                  0.033880        1841
 acc_init_cublas                         0.031834           1
 hamiltmu                                0.027721         721
 m_ibcast_z_from                         0.026830       55760
 m_ireduce_z_to                          0.022817       53760
 depsum_two_bands_rholm_trace_m          0.021447        2940
 depsum_two_bands_rholm_trace_m          0.021192        2940
 fftext_mpi                              0.020949        2401
 acc_init_cusolver                       0.019681           1
 fftbas_plan_mpi                         0.017822         443
 fftwav_mpi                              0.017790       15601
 spher                                   0.016837           1
 fornl                                   0.016117           1
 w1_dot                                  0.014972         560
 calc_dllmm_trans_and_overl_foc          0.014521        2940
 vhamil                                  0.012190        1281
 projmu_acc                              0.012140         521
 apply_gfac_weight_mu                    0.012136        2940
 ggemm                                   0.011730         921
 fock_ace_acc_apply                      0.011443         160
 kinhamil                                0.011171        1281
 hamilt_local                            0.008523         560
 map_gather                              0.008371         499
 setdij_                                 0.007438          37
 setup_precond                           0.007239         200
 augmentation_charge                     0.006311          27
 proj                                    0.006150          20
 w1_dscal                                0.005438         520
 newband                                 0.005310         821
 fock_ace_construct                      0.005105           1
 force_and_stress                        0.004665           1
 projxyz                                 0.004525          20
 inisym                                  0.004374           1
 apply_precond                           0.003771         521
 rspher_all                              0.002856           4
 dfftw_execute                           0.002797         165
 map_forward                             0.002415         418
 map_backward                            0.002376         468
 pothar                                  0.001997          29
 densta                                  0.001494          38
 waitred                                 0.001174         560
 waitgth                                 0.001168         560
 forloc                                  0.001098           1
 w1_daxpy                                0.001082         160
 wrk_deallocate                          0.000847           1
 set_charge                              0.000831          27
 set_dd_paw                              0.000785          30
 redis_pw_all                            0.000663          26
 w1_projall                              0.000580         521
 fewald                                  0.000349           1
 fftbrc_mpi                              0.000286         443
 stufak                                  0.000236           1
 fft_gq                                  0.000167          27
 forhar                                  0.000152           1
 rsp                                     0.000111           1
 truncate_high_frequency_w1              0.000096         921
 posmap                                  0.000028           2
 crpa_reader                             0.000025           1
 acc_cufft_makeplans                     0.000020           5
 rcp                                     0.000017           1
 redis_pw_over_bands                     0.000012          27
 fordep                                  0.000007           1
 set_dd_magatom                          0.000007           2
 shift_bands_between_low_high            0.000005          20
 vectorpot                               0.000004           1
 potlok_metagga                          0.000002          29
 rotate_active_occupied_orbital          0.000001           1
 ---------------------------------------------------------------
  summed up times     141.5064377784729     
 
 Accumulative profile
 ====================
 
             routine name                   CPU           calls
 ---------------------------------------------------------------
 total_time                            141.506438           1
 elmin_all                             121.808034           1
 fock_all_dblbuf                        96.907098          28
 fock_fwd                               85.286864         560
 edwav                                  57.860593          26
 eddiag                                 48.021257          14
 fock_set_gfac_vkpt                     16.049017       85260
 phaser_hf                              14.789296       85260
 fock_bck                                7.727412         560
 eddav                                   6.308231           5
 redis_pw                                5.813914        6063
 acc_cufft_makeplan                      4.260971          55
 m_sumb_d                                4.242513        4744
 init_acc                                4.164271           1
 force_and_stress                        3.805695           1
 fock_force                              3.698902           1
 orthch                                  3.307744          27
 redis_proj                              2.755390       10084
 set_charge                              2.262774          27
 fft3d_mpi                               2.101271       79933
 fock_charge_mu                          2.068064       85260
 potlok                                  2.065960          29
 dllmm_trans_eccp_nl_fock_acc            1.730927        8820
 acc_cufft_makeplans                     1.587273           5
 set_dd_paw                              1.569115          30
 fftbrc_mpi                              1.465413         443
 fftbas_plan_mpi                         1.465127         443
 rpromu_hf_acc                           1.434510       94080
 m_alltoall_d                            1.433336       23807
 lincom                                  1.335690        1720
 lapack                                  1.259090         721
 map_forward                             1.241930         418
 soft_charge_sym                         1.147474          27
 batched_fft                             1.101947      170520
 depsum_sym                              1.099369          27
 m_alltoallv_z                           1.075563         499
 racc0mu_hf_acc                          0.974218       85260
 fft3d                                   0.715518       95091
 redis_pw_over_bands                     0.594256          27
 redis_pw_all                            0.594243          26
 ggaall_grid                             0.589377          30
 fftwav_mpi                              0.565680       15601
 fftwav                                  0.547889       15601
 apply_gfac_exchange_mu_acc              0.547618       82320
 m_bcast_d                               0.487454        1475
 fock_set_fsg                            0.410795           2
 fft_and_gather                          0.407632         580
 pw_charge_trace_mu_acc                  0.379700       85260
 vhamil_trace_mu_acc                     0.375402       82320
 map_scatter                             0.355783         499
 eccp                                    0.327215        2280
 vnlac0_acc                              0.318323        2361
 brgrid                                  0.310066           1
 depsum_two_bands_rholm_trace_m          0.299143       41160
 newband                                 0.276999         821
 depsum_two_bands_rholm_trace_m          0.275436       38220
 wrk_allocate                            0.261920           1
 fock_ace_acc_apply                      0.224526         160
 map_backward                            0.202578         468
 calc_dllmm_trans_and_overl_foc          0.195962       41160
 calc_dllmm_trans_and_overl_foc          0.181685       38220
 reduce                                  0.120210         560
 pw_charge                               0.099669        3969
 choleski                                0.096814         560
 w1_copy                                 0.094671       16563
 fock_ace_construct                      0.083885           1
 orth1                                   0.081034        3843
 m_bcast_z                               0.070928        1681
 overl                                   0.070188        2842
 hamiltmu                                0.065910         721
 phase                                   0.054596        1001
 proall                                  0.050868           1
 fftext_mpi                              0.041161        2401
 hamilt_local                            0.040916         560
 proj1_acc                               0.040545         560
 contraction                             0.038290        8820
 kinhamil                                0.037585        1281
 overl1                                  0.033880        1841
 acc_init_cublas                         0.031834           1
 m_ibcast_z_from                         0.026830       55760
 m_ireduce_z_to                          0.022817       53760
 depsum_two_bands_rholm_trace_m          0.021447        2940
 depsum_two_bands_rholm_trace_m          0.021192        2940
 acc_init_cusolver                       0.019681           1
 setdij_                                 0.018266          37
 fornl                                   0.017297           1
 spher                                   0.016837           1
 densta                                  0.015926          38
 w1_dot                                  0.015218         560
 augmentation_charge                     0.015101          27
 calc_dllmm_trans_and_overl_foc          0.014521        2940
 w1_projall                              0.012720         521
 vhamil                                  0.012190        1281
 projmu_acc                              0.012140         521
 apply_gfac_weight_mu                    0.012136        2940
 ggemm                                   0.011730         921
 fft_gq                                  0.011266          27
 map_gather                              0.008371         499
 setup_precond                           0.007239         200
 proj                                    0.007124          20
 pothar                                  0.005629          29
 w1_dscal                                0.005438         520
 projxyz                                 0.004565          20
 inisym                                  0.004402           1
 apply_precond                           0.003771         521
 rspher_all                              0.002856           4
 dfftw_execute                           0.002797         165
 fordep                                  0.001455           1
 waitred                                 0.001174         560
 waitgth                                 0.001168         560
 forloc                                  0.001127           1
 w1_daxpy                                0.001082         160
 wrk_deallocate                          0.000847           1
 fewald                                  0.000733           1
 forhar                                  0.000701           1
 stufak                                  0.000236           1
 rsp                                     0.000111           1
 truncate_high_frequency_w1              0.000096         921
 posmap                                  0.000028           2
 crpa_reader                             0.000025           1
 rcp                                     0.000017           1
 set_dd_magatom                          0.000007           2
 shift_bands_between_low_high            0.000005          20
 vectorpot                               0.000004           1
 potlok_metagga                          0.000002          29
 rotate_active_occupied_orbital          0.000001           1
 ---------------------------------------------------------------
 
Profiling took   0.169165  0.118722  0.003877  0.003787 seconds
Profiling took   0.101114 seconds
