<?xml version="1.0" encoding="ISO-8859-1"?>
<modeling>
 <generator>
  <i name="program" type="string">vasp </i>
  <i name="version" type="string">6.3.2  </i>
  <i name="subversion" type="string">27Jun22 (build Jan 18 2024 14:18:24) complex                          parallel </i>
  <i name="platform" type="string">LinuxNV_CrayMPICH </i>
  <i name="date" type="string">2024 05 20 </i>
  <i name="time" type="string">12:05:12 </i>
 </generator>
 <incar>
  <i type="string" name="SYSTEM">Be4P3Rb</i>
  <i type="int" name="ISTART">     0</i>
  <i type="string" name="PREC">Accurate</i>
  <i type="string" name="ALGO">All</i>
  <i type="int" name="ICHARG">     2</i>
  <i name="EDIFF">      0.00001000</i>
  <i name="ENCUT">    400.00000000</i>
  <i type="int" name="ISMEAR">     0</i>
  <i name="SIGMA">      0.01000000</i>
  <i type="logical" name="LWAVE"> F  </i>
  <i type="logical" name="LCHARG"> F  </i>
  <i name="HFSCREEN">      0.20000000</i>
  <i type="logical" name="LHFCALC"> T  </i>
  <i type="string" name="GGA">PE</i>
  <i name="AEXX">      0.25000000</i>
 </incar>
 <primitive_cell>
  <structure name="primitive_cell" >
   <crystal>
    <varray name="basis" >
     <v>       3.64446899       0.00000000      -0.00000000 </v>
     <v>       0.00000000       3.64446899       0.00000000 </v>
     <v>       0.00000000       0.00000000       9.78381861 </v>
    </varray>
    <i name="volume">    129.95018760 </i>
    <varray name="rec_basis" >
     <v>       0.27438840       0.00000000       0.00000000 </v>
     <v>      -0.00000000       0.27438840       0.00000000 </v>
     <v>       0.00000000      -0.00000000       0.10220958 </v>
    </varray>
   </crystal>
   <varray name="positions" >
    <v>       0.00000000       0.00000000       0.50000000 </v>
    <v>       0.00000000       0.50000000       0.14297177 </v>
    <v>       0.00000000       0.50000000       0.85702823 </v>
    <v>       0.50000000       0.00000000       0.85702823 </v>
    <v>       0.50000000       0.00000000       0.14297177 </v>
    <v>       0.00000000       0.00000000       0.00000000 </v>
    <v>       0.50000000       0.50000000       0.26060231 </v>
    <v>       0.50000000       0.50000000       0.73939769 </v>
   </varray>
  </structure>
  <varray name="primitive_index" >
   <v type="int" >        1 </v>
   <v type="int" >        2 </v>
   <v type="int" >        3 </v>
   <v type="int" >        4 </v>
   <v type="int" >        5 </v>
   <v type="int" >        6 </v>
   <v type="int" >        7 </v>
   <v type="int" >        8 </v>
  </varray>
 </primitive_cell>
 <kpoints>
  <generation param="Gamma">
   <v type="int" name="divisions">       7        7        3 </v>
   <v name="usershift">      0.00000000       0.00000000       0.00000000 </v>
   <v name="genvec1">      0.14285714       0.00000000       0.00000000 </v>
   <v name="genvec2">      0.00000000       0.14285714       0.00000000 </v>
   <v name="genvec3">      0.00000000       0.00000000       0.33333333 </v>
   <v name="shift">      0.00000000       0.00000000       0.00000000 </v>
  </generation>
  <varray name="kpointlist" >
   <v>       0.00000000       0.00000000       0.00000000 </v>
   <v>       0.14285714       0.00000000       0.00000000 </v>
   <v>       0.28571429       0.00000000       0.00000000 </v>
   <v>       0.42857143       0.00000000       0.00000000 </v>
   <v>       0.14285714       0.14285714       0.00000000 </v>
   <v>       0.28571429       0.14285714       0.00000000 </v>
   <v>       0.42857143       0.14285714       0.00000000 </v>
   <v>       0.28571429       0.28571429       0.00000000 </v>
   <v>       0.42857143       0.28571429       0.00000000 </v>
   <v>       0.42857143       0.42857143       0.00000000 </v>
   <v>       0.00000000       0.00000000       0.33333333 </v>
   <v>       0.14285714       0.00000000       0.33333333 </v>
   <v>       0.28571429       0.00000000       0.33333333 </v>
   <v>       0.42857143       0.00000000       0.33333333 </v>
   <v>       0.14285714       0.14285714       0.33333333 </v>
   <v>       0.28571429       0.14285714       0.33333333 </v>
   <v>       0.42857143       0.14285714       0.33333333 </v>
   <v>       0.28571429       0.28571429       0.33333333 </v>
   <v>       0.42857143       0.28571429       0.33333333 </v>
   <v>       0.42857143       0.42857143       0.33333333 </v>
  </varray>
  <varray name="weights" >
   <v>       0.00680272 </v>
   <v>       0.02721088 </v>
   <v>       0.02721088 </v>
   <v>       0.02721088 </v>
   <v>       0.02721088 </v>
   <v>       0.05442177 </v>
   <v>       0.05442177 </v>
   <v>       0.02721088 </v>
   <v>       0.05442177 </v>
   <v>       0.02721088 </v>
   <v>       0.01360544 </v>
   <v>       0.05442177 </v>
   <v>       0.05442177 </v>
   <v>       0.05442177 </v>
   <v>       0.05442177 </v>
   <v>       0.10884354 </v>
   <v>       0.10884354 </v>
   <v>       0.05442177 </v>
   <v>       0.10884354 </v>
   <v>       0.05442177 </v>
  </varray>
 </kpoints>
 <parameters>
  <separator name="general" >
   <i type="string" name="SYSTEM">Be4P3Rb</i>
   <i type="logical" name="LCOMPAT"> F  </i>
  </separator>
  <separator name="electronic" >
   <i type="string" name="PREC">accura</i>
   <i name="ENMAX">    400.00000000</i>
   <i name="ENAUG">    780.94400000</i>
   <i name="EDIFF">      0.00001000</i>
   <i type="int" name="IALGO">    58</i>
   <i type="int" name="IWAVPR">    10</i>
   <i type="int" name="NBANDS">    48</i>
   <i type="int" name="NBANDSLOW">    -1</i>
   <i type="int" name="NBANDSHIGH">    -1</i>
   <i name="NELECT">     40.00000000</i>
   <i type="int" name="TURBO">     0</i>
   <i type="int" name="IRESTART">     0</i>
   <i type="int" name="NREBOOT">     0</i>
   <i type="int" name="NMIN">     0</i>
   <i name="EREF">      0.00000000</i>
   <separator name="electronic smearing" >
    <i type="int" name="ISMEAR">     0</i>
    <i name="SIGMA">      0.01000000</i>
    <i name="KSPACING">      0.50000000</i>
    <i type="logical" name="KGAMMA"> T  </i>
    <i type="logical" name="KBLOWUP"> T  </i>
   </separator>
   <separator name="electronic projectors" >
    <i type="logical" name="LREAL"> F  </i>
    <v name="ROPT">      0.00000000      0.00000000      0.00000000</v>
    <i type="int" name="LMAXPAW">  -100</i>
    <i type="int" name="LMAXMIX">     2</i>
    <i type="logical" name="NLSPLINE"> F  </i>
   </separator>
   <separator name="electronic startup" >
    <i type="int" name="ISTART">     0</i>
    <i type="int" name="ICHARG">     2</i>
    <i type="int" name="INIWAV">     1</i>
   </separator>
   <separator name="electronic spin" >
    <i type="int" name="ISPIN">     1</i>
    <i type="logical" name="LNONCOLLINEAR"> F  </i>
    <v name="MAGMOM">      1.00000000      1.00000000      1.00000000      1.00000000      1.00000000      1.00000000      1.00000000      1.00000000</v>
    <i name="NUPDOWN">     -1.00000000</i>
    <i type="logical" name="LSORBIT"> F  </i>
    <v name="SAXIS">      0.00000000      0.00000000      1.00000000</v>
    <i type="logical" name="LSPIRAL"> F  </i>
    <v name="QSPIRAL">      0.00000000      0.00000000      0.00000000</v>
    <i type="logical" name="LZEROZ"> F  </i>
   </separator>
   <separator name="electronic exchange-correlation" >
    <i type="logical" name="LASPH"> F  </i>
    <i type="logical" name="LMETAGGA"> F  </i>
   </separator>
   <separator name="electronic convergence" >
    <i type="int" name="NELM">    60</i>
    <i type="int" name="NELMDL">    -5</i>
    <i type="int" name="NELMIN">     2</i>
    <i name="ENINI">    400.00000000</i>
    <separator name="electronic convergence detail" >
     <i type="logical" name="LDIAG"> T  </i>
     <i type="logical" name="LSUBROT"> F  </i>
     <i name="WEIMIN">      0.00000000</i>
     <i name="EBREAK">      0.00000005</i>
     <i name="DEPER">      0.30000000</i>
     <i type="int" name="NRMM">     4</i>
     <i name="TIME">      0.40000000</i>
    </separator>
   </separator>
   <separator name="electronic mixer" >
    <i name="AMIX">      0.40000000</i>
    <i name="BMIX">      1.00000000</i>
    <i name="AMIN">      0.10000000</i>
    <i name="AMIX_MAG">      1.60000000</i>
    <i name="BMIX_MAG">      1.00000000</i>
    <separator name="electronic mixer details" >
     <i type="int" name="IMIX">     4</i>
     <i type="logical" name="MIXFIRST"> F  </i>
     <i type="int" name="MAXMIX">   -45</i>
     <i name="WC">    100.00000000</i>
     <i type="int" name="INIMIX">     1</i>
     <i type="int" name="MIXPRE">     1</i>
     <i type="int" name="MREMOVE">     5</i>
    </separator>
   </separator>
   <separator name="electronic dipolcorrection" >
    <i type="logical" name="LDIPOL"> F  </i>
    <i type="logical" name="LMONO"> F  </i>
    <i type="int" name="IDIPOL">     0</i>
    <i name="EPSILON">      1.00000000</i>
    <v name="DIPOL">   -100.00000000   -100.00000000   -100.00000000</v>
    <i name="EFIELD">      0.00000000</i>
   </separator>
  </separator>
  <separator name="grids" >
   <i type="int" name="NGX">    24</i>
   <i type="int" name="NGY">    24</i>
   <i type="int" name="NGZ">    64</i>
   <i type="int" name="NGXF">    48</i>
   <i type="int" name="NGYF">    48</i>
   <i type="int" name="NGZF">   128</i>
   <i type="logical" name="ADDGRID"> F  </i>
  </separator>
  <separator name="ionic" >
   <i type="int" name="NSW">     0</i>
   <i type="int" name="IBRION">    -1</i>
   <i type="int" name="MDALGO">     0</i>
   <i type="int" name="ISIF">     0</i>
   <i name="PSTRESS">      0.00000000</i>
   <i name="EDIFFG">      0.00010000</i>
   <i type="int" name="NFREE">     0</i>
   <i name="POTIM">      0.50000000</i>
   <i name="SMASS">     -3.00000000</i>
   <i name="SCALEE">      1.00000000</i>
  </separator>
  <separator name="ionic md" >
   <i name="TEBEG">      0.00010000</i>
   <i name="TEEND">      0.00010000</i>
   <i type="int" name="NBLOCK">     1</i>
   <i type="int" name="KBLOCK">     1</i>
   <i type="int" name="NPACO">   256</i>
   <i name="APACO">     10.00000000</i>
  </separator>
  <separator name="symmetry" >
   <i type="int" name="ISYM">     3</i>
   <i name="SYMPREC">      0.00001000</i>
  </separator>
  <separator name="dos" >
   <i type="int" name="LORBIT">     0</i>
   <v name="RWIGS">     -1.00000000     -1.00000000     -1.00000000</v>
   <i type="int" name="NEDOS">   301</i>
   <i name="EMIN">     10.00000000</i>
   <i name="EMAX">    -10.00000000</i>
   <i name="EFERMI">      0.00000000</i>
  </separator>
  <separator name="writing" >
   <i type="int" name="NWRITE">     2</i>
   <i type="logical" name="LWAVE"> F  </i>
   <i type="logical" name="LDOWNSAMPLE"> F  </i>
   <i type="logical" name="LCHARG"> F  </i>
   <i type="logical" name="LPARD"> F  </i>
   <i type="logical" name="LVTOT"> F  </i>
   <i type="logical" name="LVHAR"> F  </i>
   <i type="logical" name="LELF"> F  </i>
   <i type="logical" name="LOPTICS"> F  </i>
   <v name="STM">      0.00000000      0.00000000      0.00000000      0.00000000      0.00000000      0.00000000      0.00000000</v>
  </separator>
  <separator name="performance" >
   <i type="int" name="NPAR">    24</i>
   <i type="int" name="NSIM">     4</i>
   <i type="int" name="NBLK">    -1</i>
   <i type="logical" name="LPLANE"> T  </i>
   <i type="logical" name="LSCALAPACK"> T  </i>
   <i type="logical" name="LSCAAWARE"> F  </i>
   <i type="logical" name="LSCALU"> F  </i>
   <i type="logical" name="LASYNC"> F  </i>
   <i type="logical" name="LORBITALREAL"> F  </i>
  </separator>
  <separator name="miscellaneous" >
   <i type="int" name="IDIOT">     3</i>
   <i type="int" name="PHON_NSTRUCT">    -1</i>
   <i type="logical" name="LMUSIC"> F  </i>
   <v name="POMASS">     85.46800000      9.01300000     30.97400000</v>
   <v name="DARWINR">      0.00000000      0.00000000      0.00000000</v>
   <v name="DARWINV">      1.00000000      1.00000000      1.00000000</v>
   <i type="logical" name="LCORR"> T  </i>
  </separator>
  <i type="logical" name="GGA_COMPAT"> T  </i>
  <i type="logical" name="LBERRY"> F  </i>
  <i type="int" name="ICORELEVEL">     0</i>
  <i type="logical" name="LDAU"> F  </i>
  <i type="int" name="I_CONSTRAINED_M">     0</i>
  <separator name="electronic exchange-correlation" >
   <i type="string" name="GGA">PE</i>
   <i type="int" name="VOSKOWN">     0</i>
   <i type="logical" name="LHFCALC"> T  </i>
   <i type="string" name="PRECFOCK">normal</i>
   <i type="logical" name="LSYMGRAD"> F  </i>
   <i type="logical" name="LHFONE"> F  </i>
   <i type="logical" name="LRHFCALC"> F  </i>
   <i type="logical" name="LTHOMAS"> F  </i>
   <i type="logical" name="LMODELHF"> F  </i>
   <i type="logical" name="LFOCKACE"> T  </i>
   <i name="ENCUT4O">     -1.00000000</i>
   <i type="int" name="EXXOEP">     0</i>
   <i type="int" name="FOURORBIT">     0</i>
   <i name="AEXX">      0.25000000</i>
   <i name="HFALPHA">     -1.00000000</i>
   <i name="MCALPHA">      0.00000000</i>
   <i name="ALDAX">      0.75000000</i>
   <i name="AGGAX">      0.75000000</i>
   <i name="ALDAC">      1.00000000</i>
   <i name="AGGAC">      1.00000000</i>
   <i type="int" name="NKREDX">     1</i>
   <i type="int" name="NKREDY">     1</i>
   <i type="int" name="NKREDZ">     1</i>
   <i type="logical" name="SHIFTRED"> F  </i>
   <i type="logical" name="ODDONLY"> F  </i>
   <i type="logical" name="EVENONLY"> F  </i>
   <i type="int" name="LMAXFOCK">     4</i>
   <i type="int" name="NMAXFOCKAE">     1</i>
   <i type="logical" name="LFOCKAEDFT"> F  </i>
   <i name="HFSCREEN">      0.20000000</i>
   <i name="HFSCREENC">      0.20000000</i>
   <i type="int" name="NBANDSGWLOW">     1</i>
  </separator>
  <separator name="vdW DFT" >
   <i type="logical" name="LUSE_VDW"> F  </i>
   <i name="Zab_VDW">     -0.84910000</i>
   <i name="PARAM1">      0.12340000</i>
   <i name="PARAM2">      1.00000000</i>
   <i name="PARAM3">      0.00000000</i>
  </separator>
  <separator name="model GW" >
   <i type="int" name="MODEL_GW">     0</i>
   <i name="MODEL_EPS0">      9.74626407</i>
   <i name="MODEL_ALPHA">      1.00000000</i>
  </separator>
  <separator name="linear response parameters" >
   <i type="logical" name="LEPSILON"> F  </i>
   <i type="logical" name="LRPA"> F  </i>
   <i type="logical" name="LNABLA"> F  </i>
   <i type="logical" name="LVEL"> F  </i>
   <i name="CSHIFT">      0.10000000</i>
   <i name="OMEGAMAX">     -1.00000000</i>
   <i name="DEG_THRESHOLD">      0.00200000</i>
   <i name="RTIME">     -0.10000000</i>
   <i name="WPLASMAI">      0.00000000</i>
   <v name="DFIELD">      0.00000000      0.00000000      0.00000000</v>
   <v name="WPLASMA">      0.00000000      0.00000000      0.00000000      0.00000000      0.00000000      0.00000000      0.00000000      0.00000000      0.00000000</v>
  </separator>
  <separator name="orbital magnetization" >
   <i type="logical" name="NUCIND"> F  </i>
   <v name="MAGPOS">      0.00000000      0.00000000      0.00000000</v>
   <i type="logical" name="LNICSALL"> T  </i>
   <i type="logical" name="ORBITALMAG"> F  </i>
   <i type="logical" name="LMAGBLOCH"> F  </i>
   <i type="logical" name="LCHIMAG"> F  </i>
   <i type="logical" name="LGAUGE"> T  </i>
   <i type="int" name="MAGATOM">     0</i>
   <v name="MAGDIPOL">      0.00000000      0.00000000      0.00000000</v>
   <v name="AVECCONST">      0.00000000      0.00000000      0.00000000</v>
  </separator>
  <separator name="response functions" >
   <i type="logical" name="LFINITE_TEMPERATURE"> F  </i>
   <i type="logical" name="LADDER"> F  </i>
   <i type="logical" name="LRPAFORCE"> F  </i>
   <i type="logical" name="LFXC"> F  </i>
   <i type="logical" name="LHARTREE"> T  </i>
   <i type="int" name="IBSE">     0</i>
   <v type="int" name="KPOINT">    -1     0     0     0</v>
   <i type="logical" name="LTCTC"> F  </i>
   <i type="logical" name="LTCTE"> F  </i>
   <i type="logical" name="LTETE"> F  </i>
   <i type="logical" name="LTRIPLET"> F  </i>
   <i type="logical" name="LFXCEPS"> F  </i>
   <i type="logical" name="LFXHEG"> F  </i>
   <i type="int" name="NATURALO">     2</i>
   <i type="logical" name="LHOLEGF"> F  </i>
   <i type="logical" name="L2ORDER"> F  </i>
   <i type="logical" name="LDMP1"> F  </i>
   <i type="logical" name="LMP2LT"> F  </i>
   <i type="logical" name="LSMP2LT"> F  </i>
   <i type="logical" name="LGWLF"> F  </i>
   <i name="ENCUTGW">     -2.00000000</i>
   <i name="ENCUTGWSOFT">     -2.00000000</i>
   <i name="ENCUTLF">     -1.00000000</i>
   <i type="logical" name="LESF_SPLINES"> F  </i>
   <i type="int" name="LMAXMP2">    -1</i>
   <i name="SCISSOR">      0.00000000</i>
   <i type="int" name="NOMEGA">     0</i>
   <i type="int" name="NOMEGAR">     0</i>
   <i type="int" name="NBANDSGW">    -1</i>
   <i type="int" name="NBANDSO">    -1</i>
   <i type="int" name="NBANDSV">    -1</i>
   <i type="int" name="NELMGW">     1</i>
   <i type="int" name="NELMHF">     1</i>
   <i type="int" name="DIM">     3</i>
   <i type="int" name="IESPILON">     4</i>
   <i type="int" name="ANTIRES">     0</i>
   <i name="OMEGAMAX">    -30.00000000</i>
   <i name="OMEGAMIN">    -30.00000000</i>
   <i name="OMEGATL">   -200.00000000</i>
   <i type="int" name="OMEGAGRID">     0</i>
   <i name="CSHIFT">     -0.10000000</i>
   <i type="logical" name="LSELFENERGY"> F  </i>
   <i type="logical" name="LSPECTRAL"> F  </i>
   <i type="logical" name="LSPECTRALGW"> F  </i>
   <i type="logical" name="LSINGLES"> F  </i>
   <i type="logical" name="LFERMIGW"> F  </i>
   <i type="logical" name="ODDONLYGW"> F  </i>
   <i type="logical" name="EVENONLYGW"> F  </i>
   <i type="int" name="NKREDLFX">     1</i>
   <i type="int" name="NKREDLFY">     1</i>
   <i type="int" name="NKREDLFZ">     1</i>
   <i type="int" name="MAXMEM">  2800</i>
   <i type="int" name="TELESCOPE">     0</i>
   <i type="int" name="NTAUPAR">    -1</i>
   <i type="int" name="NOMEGAPAR">    -1</i>
   <i name="DAMP_NEWTON">      0.80000001</i>
   <i name="LAMBDA">      1.00000000</i>
  </separator>
  <separator name="External order field" >
   <i name="OFIELD_KAPPA">      0.00000000</i>
   <v name="OFIELD_K">      0.00000000      0.00000000      0.00000000</v>
   <i name="OFIELD_Q6_NEAR">      0.00000000</i>
   <i name="OFIELD_Q6_FAR">      0.00000000</i>
   <i name="OFIELD_A">      0.00000000</i>
  </separator>
  <separator name="optional k-points parameters" >
   <i type="int" name="KPOINTS_OPT_MODE">     1</i>
   <i type="logical" name="LKPOINTS_OPT"> F  </i>
  </separator>
 </parameters>
 <atominfo>
  <atoms>       8 </atoms>
  <types>       3 </types>
  <array name="atoms" >
   <dimension dim="1">ion</dimension>
   <field type="string">element</field>
   <field type="int">atomtype</field>
   <set>
    <rc><c>Rb</c><c>   1</c></rc>
    <rc><c>Be</c><c>   2</c></rc>
    <rc><c>Be</c><c>   2</c></rc>
    <rc><c>Be</c><c>   2</c></rc>
    <rc><c>Be</c><c>   2</c></rc>
    <rc><c>P </c><c>   3</c></rc>
    <rc><c>P </c><c>   3</c></rc>
    <rc><c>P </c><c>   3</c></rc>
   </set>
  </array>
  <array name="atomtypes" >
   <dimension dim="1">type</dimension>
   <field type="int">atomspertype</field>
   <field type="string">element</field>
   <field>mass</field>
   <field>valence</field>
   <field type="string">pseudopotential</field>
   <set>
    <rc><c>   1</c><c>Rb</c><c>     85.46800000</c><c>      9.00000000</c><c>  PAW_PBE Rb_sv 06Sep2000               </c></rc>
    <rc><c>   4</c><c>Be</c><c>      9.01300000</c><c>      4.00000000</c><c>  PAW_PBE Be_sv 06Sep2000               </c></rc>
    <rc><c>   3</c><c>P </c><c>     30.97400000</c><c>      5.00000000</c><c>  PAW_PBE P 06Sep2000                   </c></rc>
   </set>
  </array>
 </atominfo>
 <structure name="initialpos" >
  <crystal>
   <varray name="basis" >
    <v>       3.64446899       0.00000000      -0.00000000 </v>
    <v>       0.00000000       3.64446899       0.00000000 </v>
    <v>       0.00000000       0.00000000       9.78381861 </v>
   </varray>
   <i name="volume">    129.95018760 </i>
   <varray name="rec_basis" >
    <v>       0.27438840       0.00000000       0.00000000 </v>
    <v>      -0.00000000       0.27438840       0.00000000 </v>
    <v>       0.00000000      -0.00000000       0.10220958 </v>
   </varray>
  </crystal>
  <varray name="positions" >
   <v>       0.00000000       0.00000000       0.50000000 </v>
   <v>       0.00000000       0.50000000       0.14297177 </v>
   <v>       0.00000000       0.50000000       0.85702823 </v>
   <v>       0.50000000       0.00000000       0.85702823 </v>
   <v>       0.50000000       0.00000000       0.14297177 </v>
   <v>       0.00000000       0.00000000       0.00000000 </v>
   <v>       0.50000000       0.50000000       0.26060231 </v>
   <v>       0.50000000       0.50000000       0.73939769 </v>
  </varray>
 </structure>
 <calculation>
  <scstep>
   <time name="total">    3.22    2.54</time>
   <energy>
    <i name="alphaZ">    109.49705624 </i>
    <i name="ewald">  -1572.65416475 </i>
    <i name="hartreedc">   -452.90696352 </i>
    <i name="XCdc">    108.76794538 </i>
    <i name="pawpsdc">   1464.19494518 </i>
    <i name="pawaedc">  -2619.65879499 </i>
    <i name="eentropy">     -0.00000000 </i>
    <i name="bandstr">   -684.23292639 </i>
    <i name="atom">   2778.36867015 </i>
    <i name="e_fr_energy">   -868.62423269 </i>
    <i name="e_wo_entrp">   -868.62423269 </i>
    <i name="e_0_energy">   -868.62423269 </i>
   </energy>
  </scstep>
  <scstep>
   <time name="total">    1.39    0.89</time>
   <energy>
    <i name="e_fr_energy">  -1082.86486131 </i>
    <i name="e_wo_entrp">  -1082.86486131 </i>
    <i name="e_0_energy">  -1082.86486131 </i>
   </energy>
  </scstep>
  <scstep>
   <time name="total">    2.24    1.49</time>
   <energy>
    <i name="e_fr_energy">  -1098.21941803 </i>
    <i name="e_wo_entrp">  -1098.21941803 </i>
    <i name="e_0_energy">  -1098.21941803 </i>
   </energy>
  </scstep>
  <scstep>
   <time name="total">    1.53    1.00</time>
   <energy>
    <i name="e_fr_energy">  -1098.59888394 </i>
    <i name="e_wo_entrp">  -1098.59888394 </i>
    <i name="e_0_energy">  -1098.59888394 </i>
   </energy>
  </scstep>
  <scstep>
   <time name="total">    6.93    5.47</time>
   <energy>
    <i name="e_fr_energy">    -40.44024573 </i>
    <i name="e_wo_entrp">    -40.44024573 </i>
    <i name="e_0_energy">    -40.44024573 </i>
   </energy>
  </scstep>
  <scstep>
   <time name="total">   10.13    8.33</time>
   <energy>
    <i name="e_fr_energy">    -37.64758927 </i>
    <i name="e_wo_entrp">    -37.64758927 </i>
    <i name="e_0_energy">    -37.64758927 </i>
   </energy>
  </scstep>
  <scstep>
   <time name="total">    9.63    7.89</time>
   <energy>
    <i name="e_fr_energy">    -38.87587384 </i>
    <i name="e_wo_entrp">    -38.87587384 </i>
    <i name="e_0_energy">    -38.87587384 </i>
   </energy>
  </scstep>
  <scstep>
   <time name="total">    9.64    7.89</time>
   <energy>
    <i name="e_fr_energy">    -38.98613594 </i>
    <i name="e_wo_entrp">    -38.98613594 </i>
    <i name="e_0_energy">    -38.98613594 </i>
   </energy>
  </scstep>
  <scstep>
   <time name="total">   10.42    8.28</time>
   <energy>
    <i name="e_fr_energy">    -39.08120646 </i>
    <i name="e_wo_entrp">    -39.08120646 </i>
    <i name="e_0_energy">    -39.08120646 </i>
   </energy>
  </scstep>
  <scstep>
   <time name="total">   10.42    8.29</time>
   <energy>
    <i name="e_fr_energy">    -39.10774393 </i>
    <i name="e_wo_entrp">    -39.10774393 </i>
    <i name="e_0_energy">    -39.10774393 </i>
   </energy>
  </scstep>
  <scstep>
   <time name="total">   10.34    8.27</time>
   <energy>
    <i name="e_fr_energy">    -39.11628114 </i>
    <i name="e_wo_entrp">    -39.11628114 </i>
    <i name="e_0_energy">    -39.11628114 </i>
   </energy>
  </scstep>
  <scstep>
   <time name="total">   10.47    8.51</time>
   <energy>
    <i name="e_fr_energy">    -39.11940568 </i>
    <i name="e_wo_entrp">    -39.11940568 </i>
    <i name="e_0_energy">    -39.11940568 </i>
   </energy>
  </scstep>
  <scstep>
   <time name="total">   10.50    8.32</time>
   <energy>
    <i name="e_fr_energy">    -39.12074236 </i>
    <i name="e_wo_entrp">    -39.12074236 </i>
    <i name="e_0_energy">    -39.12074236 </i>
   </energy>
  </scstep>
  <scstep>
   <time name="total">   10.04    8.10</time>
   <energy>
    <i name="e_fr_energy">    -39.12124715 </i>
    <i name="e_wo_entrp">    -39.12124715 </i>
    <i name="e_0_energy">    -39.12124715 </i>
   </energy>
  </scstep>
  <scstep>
   <time name="total">   10.14    8.31</time>
   <energy>
    <i name="e_fr_energy">    -39.12141753 </i>
    <i name="e_wo_entrp">    -39.12141753 </i>
    <i name="e_0_energy">    -39.12141753 </i>
   </energy>
  </scstep>
  <scstep>
   <time name="total">    9.58    8.08</time>
   <energy>
    <i name="e_fr_energy">    -39.12148236 </i>
    <i name="e_wo_entrp">    -39.12148236 </i>
    <i name="e_0_energy">    -39.12148236 </i>
   </energy>
  </scstep>
  <scstep>
   <time name="total">   10.00    8.28</time>
   <energy>
    <i name="e_fr_energy">    -39.12150632 </i>
    <i name="e_wo_entrp">    -39.12150632 </i>
    <i name="e_0_energy">    -39.12150632 </i>
   </energy>
  </scstep>
  <scstep>
   <time name="total">   14.68   11.84</time>
   <energy>
    <i name="alphaZ">    109.49705624 </i>
    <i name="ewald">  -1572.65416475 </i>
    <i name="hartreedc">   -465.67480723 </i>
    <i name="XCdc">     84.14593955 </i>
    <i name="pawpsdc">   4085.47759633 </i>
    <i name="pawaedc">  -4188.73544399 </i>
    <i name="eentropy">     -0.00000000 </i>
    <i name="bandstr">   -967.15166465 </i>
    <i name="atom">   2778.36867015 </i>
    <i name="e_fr_energy">    -39.12151519 </i>
    <i name="e_wo_entrp">    -39.12151519 </i>
    <i name="e_0_energy">    -39.12151519 </i>
   </energy>
  </scstep>
  <structure>
   <crystal>
    <varray name="basis" >
     <v>       3.64446899       0.00000000      -0.00000000 </v>
     <v>       0.00000000       3.64446899       0.00000000 </v>
     <v>       0.00000000       0.00000000       9.78381861 </v>
    </varray>
    <i name="volume">    129.95018760 </i>
    <varray name="rec_basis" >
     <v>       0.27438840       0.00000000       0.00000000 </v>
     <v>      -0.00000000       0.27438840       0.00000000 </v>
     <v>       0.00000000      -0.00000000       0.10220958 </v>
    </varray>
   </crystal>
   <varray name="positions" >
    <v>       0.00000000       0.00000000       0.50000000 </v>
    <v>       0.00000000       0.50000000       0.14297177 </v>
    <v>       0.00000000       0.50000000       0.85702823 </v>
    <v>       0.50000000       0.00000000       0.85702823 </v>
    <v>       0.50000000       0.00000000       0.14297177 </v>
    <v>       0.00000000       0.00000000       0.00000000 </v>
    <v>       0.50000000       0.50000000       0.26060231 </v>
    <v>       0.50000000       0.50000000       0.73939769 </v>
   </varray>
  </structure>
  <varray name="forces" >
   <v>       0.00000000       0.00000000       0.00000000 </v>
   <v>       0.00000000       0.00000000      -0.00994989 </v>
   <v>       0.00000000       0.00000000       0.00994989 </v>
   <v>       0.00000000       0.00000000       0.00994989 </v>
   <v>       0.00000000       0.00000000      -0.00994989 </v>
   <v>       0.00000000       0.00000000       0.00000000 </v>
   <v>      -0.00000000      -0.00000000      -0.00198769 </v>
   <v>       0.00000000      -0.00000000       0.00198769 </v>
  </varray>
  <energy>
   <i name="e_fr_energy">    -39.12151519 </i>
   <i name="e_wo_entrp">    -39.12151519 </i>
   <i name="e_0_energy">    -39.12151519 </i>
  </energy>
  <time name="totalsc">  155.51  125.71</time>
  <eigenvalues>
   <array>
    <dimension dim="1">band</dimension>
    <dimension dim="2">kpoint</dimension>
    <dimension dim="3">spin</dimension>
    <field>eigene</field>
    <field>occ</field>
    <set>
     <set comment="spin 1">
      <set comment="kpoint 1">
       <r> -102.0114    1.0000 </r>
       <r> -102.0111    1.0000 </r>
       <r> -102.0065    1.0000 </r>
       <r> -102.0060    1.0000 </r>
       <r>  -25.7063    1.0000 </r>
       <r>  -10.6279    1.0000 </r>
       <r>   -9.4364    1.0000 </r>
       <r>   -8.2608    1.0000 </r>
       <r>   -8.2608    1.0000 </r>
       <r>   -7.9237    1.0000 </r>
       <r>   -7.6321    1.0000 </r>
       <r>   -1.7435    1.0000 </r>
       <r>   -0.4041    1.0000 </r>
       <r>   -0.4041    1.0000 </r>
       <r>    0.6633    1.0000 </r>
       <r>    1.2687    1.0000 </r>
       <r>    1.2687    1.0000 </r>
       <r>    3.1761    1.0000 </r>
       <r>    3.6265    1.0000 </r>
       <r>    3.6265    1.0000 </r>
       <r>    5.2130    0.0000 </r>
       <r>    5.2384    0.0000 </r>
       <r>    7.1726    0.0000 </r>
       <r>    7.5670    0.0000 </r>
       <r>    8.0798    0.0000 </r>
       <r>    8.2076    0.0000 </r>
       <r>    8.6518    0.0000 </r>
       <r>    8.6518    0.0000 </r>
       <r>    9.4163    0.0000 </r>
       <r>    9.7691    0.0000 </r>
       <r>   11.9559    0.0000 </r>
       <r>   11.9559    0.0000 </r>
       <r>   12.3464    0.0000 </r>
       <r>   12.3464    0.0000 </r>
       <r>   13.7715    0.0000 </r>
       <r>   13.7889    0.0000 </r>
       <r>   13.9207    0.0000 </r>
       <r>   14.1873    0.0000 </r>
       <r>   14.5289    0.0000 </r>
       <r>   14.5289    0.0000 </r>
       <r>   15.0378    0.0000 </r>
       <r>   15.2620    0.0000 </r>
       <r>   15.9478    0.0000 </r>
       <r>   15.9478    0.0000 </r>
       <r>   16.2211    0.0000 </r>
       <r>   18.0544    0.0000 </r>
       <r>   18.3083    0.0000 </r>
       <r>   18.3960    0.0000 </r>
      </set>
      <set comment="kpoint 2">
       <r> -102.0111    1.0000 </r>
       <r> -102.0108    1.0000 </r>
       <r> -102.0067    1.0000 </r>
       <r> -102.0063    1.0000 </r>
       <r>  -25.6904    1.0000 </r>
       <r>  -10.4564    1.0000 </r>
       <r>   -9.3066    1.0000 </r>
       <r>   -8.5172    1.0000 </r>
       <r>   -8.2427    1.0000 </r>
       <r>   -7.8903    1.0000 </r>
       <r>   -7.5016    1.0000 </r>
       <r>   -1.8800    1.0000 </r>
       <r>   -1.4662    1.0000 </r>
       <r>   -0.2114    1.0000 </r>
       <r>    0.5435    1.0000 </r>
       <r>    1.0345    1.0000 </r>
       <r>    1.4391    1.0000 </r>
       <r>    2.3412    1.0000 </r>
       <r>    3.2005    1.0000 </r>
       <r>    3.5304    1.0000 </r>
       <r>    5.4900    0.0000 </r>
       <r>    6.5804    0.0000 </r>
       <r>    7.7366    0.0000 </r>
       <r>    7.7474    0.0000 </r>
       <r>    8.2810    0.0000 </r>
       <r>    8.4985    0.0000 </r>
       <r>    8.5751    0.0000 </r>
       <r>    9.2717    0.0000 </r>
       <r>    9.9053    0.0000 </r>
       <r>   10.2425    0.0000 </r>
       <r>   11.0498    0.0000 </r>
       <r>   11.2276    0.0000 </r>
       <r>   11.6207    0.0000 </r>
       <r>   11.8823    0.0000 </r>
       <r>   12.7285    0.0000 </r>
       <r>   13.4247    0.0000 </r>
       <r>   13.8217    0.0000 </r>
       <r>   14.0999    0.0000 </r>
       <r>   14.7805    0.0000 </r>
       <r>   15.0880    0.0000 </r>
       <r>   15.4240    0.0000 </r>
       <r>   15.7238    0.0000 </r>
       <r>   16.1127    0.0000 </r>
       <r>   16.3829    0.0000 </r>
       <r>   16.9414    0.0000 </r>
       <r>   17.1185    0.0000 </r>
       <r>   17.4408    0.0000 </r>
       <r>   17.5634    0.0000 </r>
      </set>
      <set comment="kpoint 3">
       <r> -102.0105    1.0000 </r>
       <r> -102.0101    1.0000 </r>
       <r> -102.0075    1.0000 </r>
       <r> -102.0070    1.0000 </r>
       <r>  -25.6542    1.0000 </r>
       <r>   -9.9776    1.0000 </r>
       <r>   -8.9730    1.0000 </r>
       <r>   -8.9693    1.0000 </r>
       <r>   -8.2016    1.0000 </r>
       <r>   -7.8136    1.0000 </r>
       <r>   -7.4137    1.0000 </r>
       <r>   -2.7663    1.0000 </r>
       <r>   -2.5776    1.0000 </r>
       <r>    0.1133    1.0000 </r>
       <r>    0.1854    1.0000 </r>
       <r>    0.3415    1.0000 </r>
       <r>    1.8068    1.0000 </r>
       <r>    1.8900    1.0000 </r>
       <r>    2.5381    1.0000 </r>
       <r>    3.1376    1.0000 </r>
       <r>    5.9484    0.0000 </r>
       <r>    7.7315    0.0000 </r>
       <r>    7.9762    0.0000 </r>
       <r>    8.0916    0.0000 </r>
       <r>    8.2916    0.0000 </r>
       <r>    8.6529    0.0000 </r>
       <r>    9.3545    0.0000 </r>
       <r>    9.8320    0.0000 </r>
       <r>   10.4034    0.0000 </r>
       <r>   10.8031    0.0000 </r>
       <r>   10.8236    0.0000 </r>
       <r>   11.1134    0.0000 </r>
       <r>   11.6042    0.0000 </r>
       <r>   11.7275    0.0000 </r>
       <r>   12.0599    0.0000 </r>
       <r>   13.2599    0.0000 </r>
       <r>   13.6136    0.0000 </r>
       <r>   13.8743    0.0000 </r>
       <r>   14.4117    0.0000 </r>
       <r>   14.4359    0.0000 </r>
       <r>   15.0245    0.0000 </r>
       <r>   15.4116    0.0000 </r>
       <r>   15.7830    0.0000 </r>
       <r>   16.6919    0.0000 </r>
       <r>   17.2703    0.0000 </r>
       <r>   17.3218    0.0000 </r>
       <r>   18.0751    0.0000 </r>
       <r>   18.8936    0.0000 </r>
      </set>
      <set comment="kpoint 4">
       <r> -102.0095    1.0000 </r>
       <r> -102.0091    1.0000 </r>
       <r> -102.0085    1.0000 </r>
       <r> -102.0079    1.0000 </r>
       <r>  -25.6249    1.0000 </r>
       <r>   -9.4362    1.0000 </r>
       <r>   -9.2218    1.0000 </r>
       <r>   -8.6434    1.0000 </r>
       <r>   -8.1683    1.0000 </r>
       <r>   -7.7508    1.0000 </r>
       <r>   -7.6798    1.0000 </r>
       <r>   -3.3651    1.0000 </r>
       <r>   -3.1741    1.0000 </r>
       <r>   -1.2224    1.0000 </r>
       <r>    0.4870    1.0000 </r>
       <r>    1.1261    1.0000 </r>
       <r>    1.6193    1.0000 </r>
       <r>    2.2271    1.0000 </r>
       <r>    2.3639    1.0000 </r>
       <r>    2.4082    1.0000 </r>
       <r>    6.4259    0.0000 </r>
       <r>    7.1234    0.0000 </r>
       <r>    7.3951    0.0000 </r>
       <r>    8.0383    0.0000 </r>
       <r>    8.2772    0.0000 </r>
       <r>    8.6255    0.0000 </r>
       <r>    9.3014    0.0000 </r>
       <r>   10.4084    0.0000 </r>
       <r>   10.9371    0.0000 </r>
       <r>   11.0527    0.0000 </r>
       <r>   11.2824    0.0000 </r>
       <r>   11.5627    0.0000 </r>
       <r>   11.6286    0.0000 </r>
       <r>   12.2649    0.0000 </r>
       <r>   12.4952    0.0000 </r>
       <r>   12.7979    0.0000 </r>
       <r>   13.1634    0.0000 </r>
       <r>   13.7750    0.0000 </r>
       <r>   14.2006    0.0000 </r>
       <r>   15.3680    0.0000 </r>
       <r>   15.7479    0.0000 </r>
       <r>   15.9054    0.0000 </r>
       <r>   17.0560    0.0000 </r>
       <r>   17.5024    0.0000 </r>
       <r>   17.6004    0.0000 </r>
       <r>   17.7472    0.0000 </r>
       <r>   17.9765    0.0000 </r>
       <r>   18.2876    0.0000 </r>
      </set>
      <set comment="kpoint 5">
       <r> -102.0109    1.0000 </r>
       <r> -102.0106    1.0000 </r>
       <r> -102.0070    1.0000 </r>
       <r> -102.0065    1.0000 </r>
       <r>  -25.6746    1.0000 </r>
       <r>  -10.2863    1.0000 </r>
       <r>   -9.1852    1.0000 </r>
       <r>   -8.5418    1.0000 </r>
       <r>   -8.4180    1.0000 </r>
       <r>   -7.8499    1.0000 </r>
       <r>   -7.4035    1.0000 </r>
       <r>   -1.9432    1.0000 </r>
       <r>   -1.3605    1.0000 </r>
       <r>   -1.1577    1.0000 </r>
       <r>    0.6387    1.0000 </r>
       <r>    0.6643    1.0000 </r>
       <r>    1.2784    1.0000 </r>
       <r>    2.3413    1.0000 </r>
       <r>    2.3523    1.0000 </r>
       <r>    3.3026    1.0000 </r>
       <r>    6.8537    0.0000 </r>
       <r>    6.8781    0.0000 </r>
       <r>    7.5783    0.0000 </r>
       <r>    8.1817    0.0000 </r>
       <r>    8.4750    0.0000 </r>
       <r>    8.4907    0.0000 </r>
       <r>    9.3348    0.0000 </r>
       <r>    9.3875    0.0000 </r>
       <r>    9.8891    0.0000 </r>
       <r>   10.2726    0.0000 </r>
       <r>   10.2873    0.0000 </r>
       <r>   11.3500    0.0000 </r>
       <r>   11.7193    0.0000 </r>
       <r>   12.0790    0.0000 </r>
       <r>   12.3480    0.0000 </r>
       <r>   13.0671    0.0000 </r>
       <r>   13.5652    0.0000 </r>
       <r>   14.0909    0.0000 </r>
       <r>   14.2686    0.0000 </r>
       <r>   14.5963    0.0000 </r>
       <r>   15.1670    0.0000 </r>
       <r>   15.4041    0.0000 </r>
       <r>   16.0591    0.0000 </r>
       <r>   17.2461    0.0000 </r>
       <r>   17.4088    0.0000 </r>
       <r>   18.1222    0.0000 </r>
       <r>   18.5046    0.0000 </r>
       <r>   18.6801    0.0000 </r>
      </set>
      <set comment="kpoint 6">
       <r> -102.0103    1.0000 </r>
       <r> -102.0099    1.0000 </r>
       <r> -102.0076    1.0000 </r>
       <r> -102.0071    1.0000 </r>
       <r>  -25.6389    1.0000 </r>
       <r>   -9.8138    1.0000 </r>
       <r>   -8.9245    1.0000 </r>
       <r>   -8.8818    1.0000 </r>
       <r>   -8.3993    1.0000 </r>
       <r>   -7.7464    1.0000 </r>
       <r>   -7.3368    1.0000 </r>
       <r>   -2.5880    1.0000 </r>
       <r>   -2.4722    1.0000 </r>
       <r>   -0.7138    1.0000 </r>
       <r>    0.1180    1.0000 </r>
       <r>    0.2487    1.0000 </r>
       <r>    0.9255    1.0000 </r>
       <r>    1.9003    1.0000 </r>
       <r>    2.0983    1.0000 </r>
       <r>    2.7067    1.0000 </r>
       <r>    7.3135    0.0000 </r>
       <r>    7.3175    0.0000 </r>
       <r>    7.7643    0.0000 </r>
       <r>    8.0343    0.0000 </r>
       <r>    8.6663    0.0000 </r>
       <r>    9.2008    0.0000 </r>
       <r>    9.5163    0.0000 </r>
       <r>    9.7355    0.0000 </r>
       <r>   10.1831    0.0000 </r>
       <r>   10.7835    0.0000 </r>
       <r>   11.0125    0.0000 </r>
       <r>   11.3587    0.0000 </r>
       <r>   11.7613    0.0000 </r>
       <r>   12.1925    0.0000 </r>
       <r>   12.2530    0.0000 </r>
       <r>   12.6155    0.0000 </r>
       <r>   13.3619    0.0000 </r>
       <r>   13.8707    0.0000 </r>
       <r>   14.0085    0.0000 </r>
       <r>   14.3367    0.0000 </r>
       <r>   15.2407    0.0000 </r>
       <r>   15.7583    0.0000 </r>
       <r>   16.5486    0.0000 </r>
       <r>   17.4254    0.0000 </r>
       <r>   17.6975    0.0000 </r>
       <r>   18.5414    0.0000 </r>
       <r>   18.6930    0.0000 </r>
       <r>   18.8729    0.0000 </r>
      </set>
      <set comment="kpoint 7">
       <r> -102.0095    1.0000 </r>
       <r> -102.0090    1.0000 </r>
       <r> -102.0085    1.0000 </r>
       <r> -102.0080    1.0000 </r>
       <r>  -25.6098    1.0000 </r>
       <r>   -9.3369    1.0000 </r>
       <r>   -9.1090    1.0000 </r>
       <r>   -8.6010    1.0000 </r>
       <r>   -8.3495    1.0000 </r>
       <r>   -7.6366    1.0000 </r>
       <r>   -7.5861    1.0000 </r>
       <r>   -3.1993    1.0000 </r>
       <r>   -3.0630    1.0000 </r>
       <r>   -1.1479    1.0000 </r>
       <r>    0.1034    1.0000 </r>
       <r>    0.5428    1.0000 </r>
       <r>    1.1392    1.0000 </r>
       <r>    1.3827    1.0000 </r>
       <r>    1.7684    1.0000 </r>
       <r>    2.2370    1.0000 </r>
       <r>    6.7407    0.0000 </r>
       <r>    7.6857    0.0000 </r>
       <r>    7.9774    0.0000 </r>
       <r>    8.1169    0.0000 </r>
       <r>    8.3001    0.0000 </r>
       <r>    9.2130    0.0000 </r>
       <r>    9.3132    0.0000 </r>
       <r>    9.4703    0.0000 </r>
       <r>   10.4855    0.0000 </r>
       <r>   10.5023    0.0000 </r>
       <r>   10.8540    0.0000 </r>
       <r>   11.0913    0.0000 </r>
       <r>   12.5609    0.0000 </r>
       <r>   12.9378    0.0000 </r>
       <r>   13.6436    0.0000 </r>
       <r>   13.7781    0.0000 </r>
       <r>   13.9726    0.0000 </r>
       <r>   14.2047    0.0000 </r>
       <r>   14.5726    0.0000 </r>
       <r>   14.7548    0.0000 </r>
       <r>   15.6624    0.0000 </r>
       <r>   16.2619    0.0000 </r>
       <r>   16.6499    0.0000 </r>
       <r>   17.1756    0.0000 </r>
       <r>   17.6172    0.0000 </r>
       <r>   17.7109    0.0000 </r>
       <r>   18.1647    0.0000 </r>
       <r>   18.6708    0.0000 </r>
      </set>
      <set comment="kpoint 8">
       <r> -102.0100    1.0000 </r>
       <r> -102.0095    1.0000 </r>
       <r> -102.0081    1.0000 </r>
       <r> -102.0075    1.0000 </r>
       <r>  -25.6040    1.0000 </r>
       <r>   -9.3684    1.0000 </r>
       <r>   -8.8574    1.0000 </r>
       <r>   -8.7529    1.0000 </r>
       <r>   -8.6735    1.0000 </r>
       <r>   -7.5559    1.0000 </r>
       <r>   -7.2405    1.0000 </r>
       <r>   -2.3804    1.0000 </r>
       <r>   -2.3145    1.0000 </r>
       <r>   -1.9516    1.0000 </r>
       <r>   -0.3969    1.0000 </r>
       <r>   -0.0800    1.0000 </r>
       <r>    0.5126    1.0000 </r>
       <r>    0.9182    1.0000 </r>
       <r>    1.6673    1.0000 </r>
       <r>    2.1329    1.0000 </r>
       <r>    6.9741    0.0000 </r>
       <r>    7.0583    0.0000 </r>
       <r>    7.0609    0.0000 </r>
       <r>    7.9621    0.0000 </r>
       <r>    9.4269    0.0000 </r>
       <r>    9.7189    0.0000 </r>
       <r>   10.1760    0.0000 </r>
       <r>   10.4601    0.0000 </r>
       <r>   11.1042    0.0000 </r>
       <r>   11.2747    0.0000 </r>
       <r>   11.4291    0.0000 </r>
       <r>   11.4431    0.0000 </r>
       <r>   11.8177    0.0000 </r>
       <r>   11.8213    0.0000 </r>
       <r>   12.2272    0.0000 </r>
       <r>   12.7671    0.0000 </r>
       <r>   13.5188    0.0000 </r>
       <r>   14.1226    0.0000 </r>
       <r>   14.8188    0.0000 </r>
       <r>   15.1807    0.0000 </r>
       <r>   16.1269    0.0000 </r>
       <r>   16.4357    0.0000 </r>
       <r>   16.9557    0.0000 </r>
       <r>   16.9965    0.0000 </r>
       <r>   17.5790    0.0000 </r>
       <r>   19.0151    0.0000 </r>
       <r>   19.2606    0.0000 </r>
       <r>   19.3924    0.0000 </r>
      </set>
      <set comment="kpoint 9">
       <r> -102.0094    1.0000 </r>
       <r> -102.0088    1.0000 </r>
       <r> -102.0087    1.0000 </r>
       <r> -102.0081    1.0000 </r>
       <r>  -25.5757    1.0000 </r>
       <r>   -9.1525    1.0000 </r>
       <r>   -8.7743    1.0000 </r>
       <r>   -8.7065    1.0000 </r>
       <r>   -8.5084    1.0000 </r>
       <r>   -7.3590    1.0000 </r>
       <r>   -7.3379    1.0000 </r>
       <r>   -2.8821    1.0000 </r>
       <r>   -2.7275    1.0000 </r>
       <r>   -1.8386    1.0000 </r>
       <r>   -0.5542    1.0000 </r>
       <r>   -0.2368    1.0000 </r>
       <r>    0.2895    1.0000 </r>
       <r>    0.4582    1.0000 </r>
       <r>    1.2831    1.0000 </r>
       <r>    1.5455    1.0000 </r>
       <r>    6.4647    0.0000 </r>
       <r>    6.5382    0.0000 </r>
       <r>    7.3598    0.0000 </r>
       <r>    7.3671    0.0000 </r>
       <r>    9.2258    0.0000 </r>
       <r>    9.5695    0.0000 </r>
       <r>    9.8683    0.0000 </r>
       <r>   10.0379    0.0000 </r>
       <r>   10.8845    0.0000 </r>
       <r>   11.7458    0.0000 </r>
       <r>   11.8656    0.0000 </r>
       <r>   12.0593    0.0000 </r>
       <r>   12.3504    0.0000 </r>
       <r>   12.3813    0.0000 </r>
       <r>   14.2401    0.0000 </r>
       <r>   14.5491    0.0000 </r>
       <r>   14.7364    0.0000 </r>
       <r>   15.0320    0.0000 </r>
       <r>   15.4598    0.0000 </r>
       <r>   15.6652    0.0000 </r>
       <r>   16.0545    0.0000 </r>
       <r>   16.7301    0.0000 </r>
       <r>   16.9068    0.0000 </r>
       <r>   17.1499    0.0000 </r>
       <r>   17.6592    0.0000 </r>
       <r>   18.1752    0.0000 </r>
       <r>   18.6078    0.0000 </r>
       <r>   18.8323    0.0000 </r>
      </set>
      <set comment="kpoint 10">
       <r> -102.0092    1.0000 </r>
       <r> -102.0089    1.0000 </r>
       <r> -102.0085    1.0000 </r>
       <r> -102.0083    1.0000 </r>
       <r>  -25.5481    1.0000 </r>
       <r>   -9.0341    1.0000 </r>
       <r>   -9.0054    1.0000 </r>
       <r>   -8.4364    1.0000 </r>
       <r>   -8.3318    1.0000 </r>
       <r>   -7.1717    1.0000 </r>
       <r>   -7.0406    1.0000 </r>
       <r>   -2.9960    1.0000 </r>
       <r>   -2.7868    1.0000 </r>
       <r>   -2.1468    1.0000 </r>
       <r>   -1.0319    1.0000 </r>
       <r>   -0.4633    1.0000 </r>
       <r>   -0.3833    1.0000 </r>
       <r>    0.1442    1.0000 </r>
       <r>    0.7099    1.0000 </r>
       <r>    1.4363    1.0000 </r>
       <r>    5.3704    0.0000 </r>
       <r>    6.5413    0.0000 </r>
       <r>    6.6084    0.0000 </r>
       <r>    6.6640    0.0000 </r>
       <r>    8.9467    0.0000 </r>
       <r>    9.8937    0.0000 </r>
       <r>   10.5444    0.0000 </r>
       <r>   10.6821    0.0000 </r>
       <r>   10.7042    0.0000 </r>
       <r>   11.0781    0.0000 </r>
       <r>   12.1580    0.0000 </r>
       <r>   13.3707    0.0000 </r>
       <r>   13.3834    0.0000 </r>
       <r>   14.0198    0.0000 </r>
       <r>   14.3356    0.0000 </r>
       <r>   15.1587    0.0000 </r>
       <r>   15.5341    0.0000 </r>
       <r>   16.1521    0.0000 </r>
       <r>   16.4208    0.0000 </r>
       <r>   16.6363    0.0000 </r>
       <r>   16.9012    0.0000 </r>
       <r>   17.1163    0.0000 </r>
       <r>   17.3882    0.0000 </r>
       <r>   17.7048    0.0000 </r>
       <r>   18.1472    0.0000 </r>
       <r>   18.2024    0.0000 </r>
       <r>   18.6450    0.0000 </r>
       <r>   19.9430    0.0000 </r>
      </set>
      <set comment="kpoint 11">
       <r> -102.0113    1.0000 </r>
       <r> -102.0111    1.0000 </r>
       <r> -102.0065    1.0000 </r>
       <r> -102.0060    1.0000 </r>
       <r>  -25.7063    1.0000 </r>
       <r>  -10.6608    1.0000 </r>
       <r>   -9.1865    1.0000 </r>
       <r>   -8.5232    1.0000 </r>
       <r>   -8.2608    1.0000 </r>
       <r>   -8.2608    1.0000 </r>
       <r>   -7.2051    1.0000 </r>
       <r>   -1.9697    1.0000 </r>
       <r>   -0.4118    1.0000 </r>
       <r>   -0.4118    1.0000 </r>
       <r>    1.2642    1.0000 </r>
       <r>    1.2970    1.0000 </r>
       <r>    1.2970    1.0000 </r>
       <r>    2.5859    1.0000 </r>
       <r>    3.5840    1.0000 </r>
       <r>    3.5840    1.0000 </r>
       <r>    5.2137    0.0000 </r>
       <r>    5.4846    0.0000 </r>
       <r>    7.1010    0.0000 </r>
       <r>    7.1270    0.0000 </r>
       <r>    7.6344    0.0000 </r>
       <r>    8.7789    0.0000 </r>
       <r>    8.7789    0.0000 </r>
       <r>    9.1021    0.0000 </r>
       <r>    9.7231    0.0000 </r>
       <r>    9.9788    0.0000 </r>
       <r>   11.2973    0.0000 </r>
       <r>   11.2973    0.0000 </r>
       <r>   12.5138    0.0000 </r>
       <r>   13.2067    0.0000 </r>
       <r>   13.2067    0.0000 </r>
       <r>   14.0125    0.0000 </r>
       <r>   14.0982    0.0000 </r>
       <r>   14.3149    0.0000 </r>
       <r>   14.5599    0.0000 </r>
       <r>   14.5599    0.0000 </r>
       <r>   14.7356    0.0000 </r>
       <r>   15.3277    0.0000 </r>
       <r>   15.3277    0.0000 </r>
       <r>   15.8816    0.0000 </r>
       <r>   16.5940    0.0000 </r>
       <r>   17.5136    0.0000 </r>
       <r>   17.7981    0.0000 </r>
       <r>   18.4529    0.0000 </r>
      </set>
      <set comment="kpoint 12">
       <r> -102.0111    1.0000 </r>
       <r> -102.0108    1.0000 </r>
       <r> -102.0067    1.0000 </r>
       <r> -102.0063    1.0000 </r>
       <r>  -25.6904    1.0000 </r>
       <r>  -10.4860    1.0000 </r>
       <r>   -9.0876    1.0000 </r>
       <r>   -8.6327    1.0000 </r>
       <r>   -8.2427    1.0000 </r>
       <r>   -8.2302    1.0000 </r>
       <r>   -7.2117    1.0000 </r>
       <r>   -1.9848    1.0000 </r>
       <r>   -1.4004    1.0000 </r>
       <r>   -0.2179    1.0000 </r>
       <r>    0.3090    1.0000 </r>
       <r>    1.4304    1.0000 </r>
       <r>    1.4621    1.0000 </r>
       <r>    2.4444    1.0000 </r>
       <r>    2.9278    1.0000 </r>
       <r>    3.5026    1.0000 </r>
       <r>    5.6155    0.0000 </r>
       <r>    6.6748    0.0000 </r>
       <r>    7.1154    0.0000 </r>
       <r>    7.9200    0.0000 </r>
       <r>    8.0175    0.0000 </r>
       <r>    8.3681    0.0000 </r>
       <r>    8.6079    0.0000 </r>
       <r>    9.7935    0.0000 </r>
       <r>   10.1907    0.0000 </r>
       <r>   10.5200    0.0000 </r>
       <r>   10.7206    0.0000 </r>
       <r>   11.1170    0.0000 </r>
       <r>   12.1989    0.0000 </r>
       <r>   12.4835    0.0000 </r>
       <r>   12.9821    0.0000 </r>
       <r>   13.0494    0.0000 </r>
       <r>   13.3565    0.0000 </r>
       <r>   14.0481    0.0000 </r>
       <r>   14.2730    0.0000 </r>
       <r>   14.4488    0.0000 </r>
       <r>   14.4651    0.0000 </r>
       <r>   15.5093    0.0000 </r>
       <r>   16.3634    0.0000 </r>
       <r>   16.8434    0.0000 </r>
       <r>   17.2090    0.0000 </r>
       <r>   17.4739    0.0000 </r>
       <r>   17.7960    0.0000 </r>
       <r>   18.2587    0.0000 </r>
      </set>
      <set comment="kpoint 13">
       <r> -102.0105    1.0000 </r>
       <r> -102.0101    1.0000 </r>
       <r> -102.0075    1.0000 </r>
       <r> -102.0069    1.0000 </r>
       <r>  -25.6542    1.0000 </r>
       <r>   -9.9920    1.0000 </r>
       <r>   -9.0609    1.0000 </r>
       <r>   -8.7924    1.0000 </r>
       <r>   -8.2016    1.0000 </r>
       <r>   -7.9548    1.0000 </r>
       <r>   -7.3591    1.0000 </r>
       <r>   -2.6957    1.0000 </r>
       <r>   -2.5580    1.0000 </r>
       <r>   -0.1813    1.0000 </r>
       <r>    0.1977    1.0000 </r>
       <r>    0.3386    1.0000 </r>
       <r>    1.8967    1.0000 </r>
       <r>    2.1340    1.0000 </r>
       <r>    2.5342    1.0000 </r>
       <r>    3.1382    1.0000 </r>
       <r>    6.0293    0.0000 </r>
       <r>    6.9795    0.0000 </r>
       <r>    7.9346    0.0000 </r>
       <r>    8.0712    0.0000 </r>
       <r>    8.1462    0.0000 </r>
       <r>    9.2748    0.0000 </r>
       <r>    9.7918    0.0000 </r>
       <r>    9.7922    0.0000 </r>
       <r>   10.1190    0.0000 </r>
       <r>   10.4948    0.0000 </r>
       <r>   11.0482    0.0000 </r>
       <r>   11.1026    0.0000 </r>
       <r>   11.9978    0.0000 </r>
       <r>   12.2455    0.0000 </r>
       <r>   12.4493    0.0000 </r>
       <r>   12.6886    0.0000 </r>
       <r>   13.1499    0.0000 </r>
       <r>   13.7698    0.0000 </r>
       <r>   14.0921    0.0000 </r>
       <r>   14.2508    0.0000 </r>
       <r>   14.6641    0.0000 </r>
       <r>   15.9709    0.0000 </r>
       <r>   16.3990    0.0000 </r>
       <r>   16.5669    0.0000 </r>
       <r>   16.8638    0.0000 </r>
       <r>   17.4399    0.0000 </r>
       <r>   17.8689    0.0000 </r>
       <r>   18.9705    0.0000 </r>
      </set>
      <set comment="kpoint 14">
       <r> -102.0095    1.0000 </r>
       <r> -102.0091    1.0000 </r>
       <r> -102.0085    1.0000 </r>
       <r> -102.0079    1.0000 </r>
       <r>  -25.6249    1.0000 </r>
       <r>   -9.3938    1.0000 </r>
       <r>   -9.2899    1.0000 </r>
       <r>   -8.6050    1.0000 </r>
       <r>   -8.1683    1.0000 </r>
       <r>   -7.8283    1.0000 </r>
       <r>   -7.6057    1.0000 </r>
       <r>   -3.4309    1.0000 </r>
       <r>   -3.1815    1.0000 </r>
       <r>   -1.0746    1.0000 </r>
       <r>    0.4359    1.0000 </r>
       <r>    1.1264    1.0000 </r>
       <r>    1.5599    1.0000 </r>
       <r>    2.2384    1.0000 </r>
       <r>    2.3467    1.0000 </r>
       <r>    2.4240    1.0000 </r>
       <r>    6.4433    0.0000 </r>
       <r>    7.1368    0.0000 </r>
       <r>    7.4323    0.0000 </r>
       <r>    8.2964    0.0000 </r>
       <r>    8.3873    0.0000 </r>
       <r>    8.4450    0.0000 </r>
       <r>    9.5079    0.0000 </r>
       <r>    9.6658    0.0000 </r>
       <r>   10.6644    0.0000 </r>
       <r>   10.6991    0.0000 </r>
       <r>   11.0017    0.0000 </r>
       <r>   11.1975    0.0000 </r>
       <r>   12.1229    0.0000 </r>
       <r>   12.4388    0.0000 </r>
       <r>   13.2908    0.0000 </r>
       <r>   13.3683    0.0000 </r>
       <r>   13.7618    0.0000 </r>
       <r>   14.0673    0.0000 </r>
       <r>   14.5386    0.0000 </r>
       <r>   14.9309    0.0000 </r>
       <r>   15.5496    0.0000 </r>
       <r>   15.9982    0.0000 </r>
       <r>   16.2906    0.0000 </r>
       <r>   17.0239    0.0000 </r>
       <r>   17.2164    0.0000 </r>
       <r>   17.3003    0.0000 </r>
       <r>   17.8488    0.0000 </r>
       <r>   18.2211    0.0000 </r>
      </set>
      <set comment="kpoint 15">
       <r> -102.0109    1.0000 </r>
       <r> -102.0106    1.0000 </r>
       <r> -102.0070    1.0000 </r>
       <r> -102.0065    1.0000 </r>
       <r>  -25.6746    1.0000 </r>
       <r>  -10.3131    1.0000 </r>
       <r>   -8.9959    1.0000 </r>
       <r>   -8.6442    1.0000 </r>
       <r>   -8.4180    1.0000 </r>
       <r>   -8.0969    1.0000 </r>
       <r>   -7.2056    1.0000 </r>
       <r>   -1.9933    1.0000 </r>
       <r>   -1.2683    1.0000 </r>
       <r>   -1.1660    1.0000 </r>
       <r>    0.3639    1.0000 </r>
       <r>    0.6776    1.0000 </r>
       <r>    1.5219    1.0000 </r>
       <r>    2.3039    1.0000 </r>
       <r>    2.5697    1.0000 </r>
       <r>    3.0965    1.0000 </r>
       <r>    6.8870    0.0000 </r>
       <r>    7.0338    0.0000 </r>
       <r>    7.4933    0.0000 </r>
       <r>    7.5614    0.0000 </r>
       <r>    8.4859    0.0000 </r>
       <r>    8.8175    0.0000 </r>
       <r>    9.3441    0.0000 </r>
       <r>    9.4584    0.0000 </r>
       <r>   10.2332    0.0000 </r>
       <r>   10.2767    0.0000 </r>
       <r>   10.4364    0.0000 </r>
       <r>   11.1253    0.0000 </r>
       <r>   11.3300    0.0000 </r>
       <r>   12.0933    0.0000 </r>
       <r>   12.5635    0.0000 </r>
       <r>   13.0787    0.0000 </r>
       <r>   13.4833    0.0000 </r>
       <r>   14.3024    0.0000 </r>
       <r>   14.6597    0.0000 </r>
       <r>   15.0488    0.0000 </r>
       <r>   15.2374    0.0000 </r>
       <r>   15.3852    0.0000 </r>
       <r>   15.4083    0.0000 </r>
       <r>   15.9017    0.0000 </r>
       <r>   17.4551    0.0000 </r>
       <r>   17.9964    0.0000 </r>
       <r>   18.5425    0.0000 </r>
       <r>   18.9035    0.0000 </r>
      </set>
      <set comment="kpoint 16">
       <r> -102.0104    1.0000 </r>
       <r> -102.0099    1.0000 </r>
       <r> -102.0076    1.0000 </r>
       <r> -102.0071    1.0000 </r>
       <r>  -25.6389    1.0000 </r>
       <r>   -9.8262    1.0000 </r>
       <r>   -9.0008    1.0000 </r>
       <r>   -8.7315    1.0000 </r>
       <r>   -8.4094    1.0000 </r>
       <r>   -7.8366    1.0000 </r>
       <r>   -7.3079    1.0000 </r>
       <r>   -2.5369    1.0000 </r>
       <r>   -2.4647    1.0000 </r>
       <r>   -0.7138    1.0000 </r>
       <r>   -0.0767    1.0000 </r>
       <r>    0.2937    1.0000 </r>
       <r>    0.9268    1.0000 </r>
       <r>    2.0708    1.0000 </r>
       <r>    2.1607    1.0000 </r>
       <r>    2.6062    1.0000 </r>
       <r>    7.1331    0.0000 </r>
       <r>    7.3458    0.0000 </r>
       <r>    7.4669    0.0000 </r>
       <r>    8.5660    0.0000 </r>
       <r>    8.8885    0.0000 </r>
       <r>    9.1917    0.0000 </r>
       <r>    9.5644    0.0000 </r>
       <r>    9.8161    0.0000 </r>
       <r>    9.9234    0.0000 </r>
       <r>   10.3903    0.0000 </r>
       <r>   10.7342    0.0000 </r>
       <r>   11.1388    0.0000 </r>
       <r>   11.6457    0.0000 </r>
       <r>   12.2369    0.0000 </r>
       <r>   12.6053    0.0000 </r>
       <r>   12.9148    0.0000 </r>
       <r>   13.7606    0.0000 </r>
       <r>   14.1603    0.0000 </r>
       <r>   14.3730    0.0000 </r>
       <r>   14.6241    0.0000 </r>
       <r>   15.0057    0.0000 </r>
       <r>   15.3007    0.0000 </r>
       <r>   16.2743    0.0000 </r>
       <r>   16.9254    0.0000 </r>
       <r>   17.2063    0.0000 </r>
       <r>   18.0787    0.0000 </r>
       <r>   18.5233    0.0000 </r>
       <r>   19.0878    0.0000 </r>
      </set>
      <set comment="kpoint 17">
       <r> -102.0095    1.0000 </r>
       <r> -102.0090    1.0000 </r>
       <r> -102.0085    1.0000 </r>
       <r> -102.0080    1.0000 </r>
       <r>  -25.6098    1.0000 </r>
       <r>   -9.3050    1.0000 </r>
       <r>   -9.1658    1.0000 </r>
       <r>   -8.5655    1.0000 </r>
       <r>   -8.3507    1.0000 </r>
       <r>   -7.7109    1.0000 </r>
       <r>   -7.5136    1.0000 </r>
       <r>   -3.2538    1.0000 </r>
       <r>   -3.0638    1.0000 </r>
       <r>   -1.0475    1.0000 </r>
       <r>    0.1179    1.0000 </r>
       <r>    0.4526    1.0000 </r>
       <r>    1.1965    1.0000 </r>
       <r>    1.3320    1.0000 </r>
       <r>    1.6696    1.0000 </r>
       <r>    2.4194    1.0000 </r>
       <r>    6.5994    0.0000 </r>
       <r>    7.5438    0.0000 </r>
       <r>    7.8943    0.0000 </r>
       <r>    8.0902    0.0000 </r>
       <r>    8.3615    0.0000 </r>
       <r>    9.0724    0.0000 </r>
       <r>    9.4812    0.0000 </r>
       <r>    9.6319    0.0000 </r>
       <r>   10.4565    0.0000 </r>
       <r>   10.6610    0.0000 </r>
       <r>   10.9851    0.0000 </r>
       <r>   11.4566    0.0000 </r>
       <r>   12.3373    0.0000 </r>
       <r>   12.7104    0.0000 </r>
       <r>   13.1986    0.0000 </r>
       <r>   13.7840    0.0000 </r>
       <r>   13.8098    0.0000 </r>
       <r>   14.1630    0.0000 </r>
       <r>   14.6554    0.0000 </r>
       <r>   15.1055    0.0000 </r>
       <r>   15.6597    0.0000 </r>
       <r>   16.5638    0.0000 </r>
       <r>   17.2545    0.0000 </r>
       <r>   17.3976    0.0000 </r>
       <r>   17.5343    0.0000 </r>
       <r>   17.6349    0.0000 </r>
       <r>   17.9525    0.0000 </r>
       <r>   18.7038    0.0000 </r>
      </set>
      <set comment="kpoint 18">
       <r> -102.0100    1.0000 </r>
       <r> -102.0094    1.0000 </r>
       <r> -102.0081    1.0000 </r>
       <r> -102.0075    1.0000 </r>
       <r>  -25.6040    1.0000 </r>
       <r>   -9.3676    1.0000 </r>
       <r>   -8.9210    1.0000 </r>
       <r>   -8.7529    1.0000 </r>
       <r>   -8.5882    1.0000 </r>
       <r>   -7.5690    1.0000 </r>
       <r>   -7.2542    1.0000 </r>
       <r>   -2.4046    1.0000 </r>
       <r>   -2.3250    1.0000 </r>
       <r>   -1.9175    1.0000 </r>
       <r>   -0.3280    1.0000 </r>
       <r>   -0.0010    1.0000 </r>
       <r>    0.3930    1.0000 </r>
       <r>    0.8346    1.0000 </r>
       <r>    1.7968    1.0000 </r>
       <r>    2.0332    1.0000 </r>
       <r>    6.8141    0.0000 </r>
       <r>    7.1502    0.0000 </r>
       <r>    7.4606    0.0000 </r>
       <r>    7.9848    0.0000 </r>
       <r>    9.2568    0.0000 </r>
       <r>    9.5274    0.0000 </r>
       <r>   10.0107    0.0000 </r>
       <r>   10.3451    0.0000 </r>
       <r>   10.6726    0.0000 </r>
       <r>   11.1028    0.0000 </r>
       <r>   11.1488    0.0000 </r>
       <r>   11.7585    0.0000 </r>
       <r>   11.8917    0.0000 </r>
       <r>   12.1076    0.0000 </r>
       <r>   12.6720    0.0000 </r>
       <r>   12.9876    0.0000 </r>
       <r>   13.8853    0.0000 </r>
       <r>   14.3187    0.0000 </r>
       <r>   15.0546    0.0000 </r>
       <r>   15.1971    0.0000 </r>
       <r>   15.5265    0.0000 </r>
       <r>   15.9662    0.0000 </r>
       <r>   16.9534    0.0000 </r>
       <r>   17.0472    0.0000 </r>
       <r>   17.7237    0.0000 </r>
       <r>   18.5333    0.0000 </r>
       <r>   18.9638    0.0000 </r>
       <r>   19.6385    0.0000 </r>
      </set>
      <set comment="kpoint 19">
       <r> -102.0094    1.0000 </r>
       <r> -102.0088    1.0000 </r>
       <r> -102.0087    1.0000 </r>
       <r> -102.0081    1.0000 </r>
       <r>  -25.5757    1.0000 </r>
       <r>   -9.1452    1.0000 </r>
       <r>   -8.7912    1.0000 </r>
       <r>   -8.7280    1.0000 </r>
       <r>   -8.4725    1.0000 </r>
       <r>   -7.4171    1.0000 </r>
       <r>   -7.2809    1.0000 </r>
       <r>   -2.8713    1.0000 </r>
       <r>   -2.7577    1.0000 </r>
       <r>   -1.8429    1.0000 </r>
       <r>   -0.5244    1.0000 </r>
       <r>   -0.1921    1.0000 </r>
       <r>    0.2031    1.0000 </r>
       <r>    0.4986    1.0000 </r>
       <r>    1.0302    1.0000 </r>
       <r>    1.8620    1.0000 </r>
       <r>    6.2618    0.0000 </r>
       <r>    6.6329    0.0000 </r>
       <r>    7.0465    0.0000 </r>
       <r>    7.5763    0.0000 </r>
       <r>    9.1972    0.0000 </r>
       <r>    9.7181    0.0000 </r>
       <r>    9.8489    0.0000 </r>
       <r>   10.5569    0.0000 </r>
       <r>   10.8928    0.0000 </r>
       <r>   11.1436    0.0000 </r>
       <r>   11.5465    0.0000 </r>
       <r>   12.2338    0.0000 </r>
       <r>   12.3730    0.0000 </r>
       <r>   12.6822    0.0000 </r>
       <r>   13.9262    0.0000 </r>
       <r>   14.2156    0.0000 </r>
       <r>   14.9285    0.0000 </r>
       <r>   15.1970    0.0000 </r>
       <r>   15.3998    0.0000 </r>
       <r>   15.6749    0.0000 </r>
       <r>   16.1128    0.0000 </r>
       <r>   16.7561    0.0000 </r>
       <r>   17.3689    0.0000 </r>
       <r>   17.7346    0.0000 </r>
       <r>   17.8781    0.0000 </r>
       <r>   18.1135    0.0000 </r>
       <r>   18.7169    0.0000 </r>
       <r>   18.9738    0.0000 </r>
      </set>
      <set comment="kpoint 20">
       <r> -102.0092    1.0000 </r>
       <r> -102.0090    1.0000 </r>
       <r> -102.0085    1.0000 </r>
       <r> -102.0083    1.0000 </r>
       <r>  -25.5481    1.0000 </r>
       <r>   -9.0331    1.0000 </r>
       <r>   -9.0053    1.0000 </r>
       <r>   -8.4660    1.0000 </r>
       <r>   -8.3004    1.0000 </r>
       <r>   -7.1688    1.0000 </r>
       <r>   -7.0459    1.0000 </r>
       <r>   -3.0081    1.0000 </r>
       <r>   -2.7823    1.0000 </r>
       <r>   -2.1587    1.0000 </r>
       <r>   -0.9408    1.0000 </r>
       <r>   -0.4669    1.0000 </r>
       <r>   -0.3581    1.0000 </r>
       <r>    0.0364    1.0000 </r>
       <r>    0.8232    1.0000 </r>
       <r>    1.2334    1.0000 </r>
       <r>    5.5366    0.0000 </r>
       <r>    6.5044    0.0000 </r>
       <r>    6.7966    0.0000 </r>
       <r>    7.2843    0.0000 </r>
       <r>    8.5968    0.0000 </r>
       <r>    8.9361    0.0000 </r>
       <r>    9.4136    0.0000 </r>
       <r>   10.1364    0.0000 </r>
       <r>   11.3602    0.0000 </r>
       <r>   11.9487    0.0000 </r>
       <r>   13.1729    0.0000 </r>
       <r>   13.3809    0.0000 </r>
       <r>   14.0203    0.0000 </r>
       <r>   14.3295    0.0000 </r>
       <r>   14.5922    0.0000 </r>
       <r>   14.9488    0.0000 </r>
       <r>   15.2359    0.0000 </r>
       <r>   15.6713    0.0000 </r>
       <r>   16.1234    0.0000 </r>
       <r>   16.5005    0.0000 </r>
       <r>   16.6608    0.0000 </r>
       <r>   17.0265    0.0000 </r>
       <r>   17.2611    0.0000 </r>
       <r>   17.7784    0.0000 </r>
       <r>   17.9326    0.0000 </r>
       <r>   18.6461    0.0000 </r>
       <r>   18.7912    0.0000 </r>
       <r>   19.5846    0.0000 </r>
      </set>
     </set>
    </set>
   </array>
  </eigenvalues>
  <separator name="orbital magnetization" >
   <v name="MAGDIPOLOUT">      0.00000000      0.00000000      0.00000000</v>
  </separator>
  <dos>
   <i name="efermi">      3.79420025 </i>
   <total>
    <array>
     <dimension dim="1">gridpoints</dimension>
     <dimension dim="2">spin</dimension>
     <field>energy</field>
     <field>total</field>
     <field>integrated</field>
     <set>
      <set comment="spin 1">
       <r>  -108.1091     0.0000     0.0000 </r>
       <r>  -107.6619     0.0000     0.0000 </r>
       <r>  -107.2148     0.0000     0.0000 </r>
       <r>  -106.7676     0.0000     0.0000 </r>
       <r>  -106.3204     0.0000     0.0000 </r>
       <r>  -105.8733     0.0000     0.0000 </r>
       <r>  -105.4261     0.0000     0.0000 </r>
       <r>  -104.9789     0.0000     0.0000 </r>
       <r>  -104.5318     0.0000     0.0000 </r>
       <r>  -104.0846     0.0000     0.0000 </r>
       <r>  -103.6374     0.0000     0.0000 </r>
       <r>  -103.1903     0.0000     0.0000 </r>
       <r>  -102.7431     0.0000     0.0000 </r>
       <r>  -102.2959     0.0000     0.0000 </r>
       <r>  -101.8488     0.0000     8.0000 </r>
       <r>  -101.4016     0.0000     8.0000 </r>
       <r>  -100.9544     0.0000     8.0000 </r>
       <r>  -100.5073     0.0000     8.0000 </r>
       <r>  -100.0601     0.0000     8.0000 </r>
       <r>   -99.6129     0.0000     8.0000 </r>
       <r>   -99.1658     0.0000     8.0000 </r>
       <r>   -98.7186     0.0000     8.0000 </r>
       <r>   -98.2714     0.0000     8.0000 </r>
       <r>   -97.8243     0.0000     8.0000 </r>
       <r>   -97.3771     0.0000     8.0000 </r>
       <r>   -96.9299     0.0000     8.0000 </r>
       <r>   -96.4828     0.0000     8.0000 </r>
       <r>   -96.0356     0.0000     8.0000 </r>
       <r>   -95.5884     0.0000     8.0000 </r>
       <r>   -95.1413     0.0000     8.0000 </r>
       <r>   -94.6941     0.0000     8.0000 </r>
       <r>   -94.2469     0.0000     8.0000 </r>
       <r>   -93.7998     0.0000     8.0000 </r>
       <r>   -93.3526     0.0000     8.0000 </r>
       <r>   -92.9054     0.0000     8.0000 </r>
       <r>   -92.4583     0.0000     8.0000 </r>
       <r>   -92.0111     0.0000     8.0000 </r>
       <r>   -91.5639     0.0000     8.0000 </r>
       <r>   -91.1168     0.0000     8.0000 </r>
       <r>   -90.6696     0.0000     8.0000 </r>
       <r>   -90.2225     0.0000     8.0000 </r>
       <r>   -89.7753     0.0000     8.0000 </r>
       <r>   -89.3281     0.0000     8.0000 </r>
       <r>   -88.8810     0.0000     8.0000 </r>
       <r>   -88.4338     0.0000     8.0000 </r>
       <r>   -87.9866     0.0000     8.0000 </r>
       <r>   -87.5395     0.0000     8.0000 </r>
       <r>   -87.0923     0.0000     8.0000 </r>
       <r>   -86.6451     0.0000     8.0000 </r>
       <r>   -86.1980     0.0000     8.0000 </r>
       <r>   -85.7508     0.0000     8.0000 </r>
       <r>   -85.3036     0.0000     8.0000 </r>
       <r>   -84.8565     0.0000     8.0000 </r>
       <r>   -84.4093     0.0000     8.0000 </r>
       <r>   -83.9621     0.0000     8.0000 </r>
       <r>   -83.5150     0.0000     8.0000 </r>
       <r>   -83.0678     0.0000     8.0000 </r>
       <r>   -82.6206     0.0000     8.0000 </r>
       <r>   -82.1735     0.0000     8.0000 </r>
       <r>   -81.7263     0.0000     8.0000 </r>
       <r>   -81.2791     0.0000     8.0000 </r>
       <r>   -80.8320     0.0000     8.0000 </r>
       <r>   -80.3848     0.0000     8.0000 </r>
       <r>   -79.9376     0.0000     8.0000 </r>
       <r>   -79.4905     0.0000     8.0000 </r>
       <r>   -79.0433     0.0000     8.0000 </r>
       <r>   -78.5961     0.0000     8.0000 </r>
       <r>   -78.1490     0.0000     8.0000 </r>
       <r>   -77.7018     0.0000     8.0000 </r>
       <r>   -77.2546     0.0000     8.0000 </r>
       <r>   -76.8075     0.0000     8.0000 </r>
       <r>   -76.3603     0.0000     8.0000 </r>
       <r>   -75.9131     0.0000     8.0000 </r>
       <r>   -75.4660     0.0000     8.0000 </r>
       <r>   -75.0188     0.0000     8.0000 </r>
       <r>   -74.5716     0.0000     8.0000 </r>
       <r>   -74.1245     0.0000     8.0000 </r>
       <r>   -73.6773     0.0000     8.0000 </r>
       <r>   -73.2301     0.0000     8.0000 </r>
       <r>   -72.7830     0.0000     8.0000 </r>
       <r>   -72.3358     0.0000     8.0000 </r>
       <r>   -71.8886     0.0000     8.0000 </r>
       <r>   -71.4415     0.0000     8.0000 </r>
       <r>   -70.9943     0.0000     8.0000 </r>
       <r>   -70.5471     0.0000     8.0000 </r>
       <r>   -70.1000     0.0000     8.0000 </r>
       <r>   -69.6528     0.0000     8.0000 </r>
       <r>   -69.2056     0.0000     8.0000 </r>
       <r>   -68.7585     0.0000     8.0000 </r>
       <r>   -68.3113     0.0000     8.0000 </r>
       <r>   -67.8642     0.0000     8.0000 </r>
       <r>   -67.4170     0.0000     8.0000 </r>
       <r>   -66.9698     0.0000     8.0000 </r>
       <r>   -66.5227     0.0000     8.0000 </r>
       <r>   -66.0755     0.0000     8.0000 </r>
       <r>   -65.6283     0.0000     8.0000 </r>
       <r>   -65.1812     0.0000     8.0000 </r>
       <r>   -64.7340     0.0000     8.0000 </r>
       <r>   -64.2868     0.0000     8.0000 </r>
       <r>   -63.8397     0.0000     8.0000 </r>
       <r>   -63.3925     0.0000     8.0000 </r>
       <r>   -62.9453     0.0000     8.0000 </r>
       <r>   -62.4982     0.0000     8.0000 </r>
       <r>   -62.0510     0.0000     8.0000 </r>
       <r>   -61.6038     0.0000     8.0000 </r>
       <r>   -61.1567     0.0000     8.0000 </r>
       <r>   -60.7095     0.0000     8.0000 </r>
       <r>   -60.2623     0.0000     8.0000 </r>
       <r>   -59.8152     0.0000     8.0000 </r>
       <r>   -59.3680     0.0000     8.0000 </r>
       <r>   -58.9208     0.0000     8.0000 </r>
       <r>   -58.4737     0.0000     8.0000 </r>
       <r>   -58.0265     0.0000     8.0000 </r>
       <r>   -57.5793     0.0000     8.0000 </r>
       <r>   -57.1322     0.0000     8.0000 </r>
       <r>   -56.6850     0.0000     8.0000 </r>
       <r>   -56.2378     0.0000     8.0000 </r>
       <r>   -55.7907     0.0000     8.0000 </r>
       <r>   -55.3435     0.0000     8.0000 </r>
       <r>   -54.8963     0.0000     8.0000 </r>
       <r>   -54.4492     0.0000     8.0000 </r>
       <r>   -54.0020     0.0000     8.0000 </r>
       <r>   -53.5548     0.0000     8.0000 </r>
       <r>   -53.1077     0.0000     8.0000 </r>
       <r>   -52.6605     0.0000     8.0000 </r>
       <r>   -52.2133     0.0000     8.0000 </r>
       <r>   -51.7662     0.0000     8.0000 </r>
       <r>   -51.3190     0.0000     8.0000 </r>
       <r>   -50.8718     0.0000     8.0000 </r>
       <r>   -50.4247     0.0000     8.0000 </r>
       <r>   -49.9775     0.0000     8.0000 </r>
       <r>   -49.5303     0.0000     8.0000 </r>
       <r>   -49.0832     0.0000     8.0000 </r>
       <r>   -48.6360     0.0000     8.0000 </r>
       <r>   -48.1888     0.0000     8.0000 </r>
       <r>   -47.7417     0.0000     8.0000 </r>
       <r>   -47.2945     0.0000     8.0000 </r>
       <r>   -46.8473     0.0000     8.0000 </r>
       <r>   -46.4002     0.0000     8.0000 </r>
       <r>   -45.9530     0.0000     8.0000 </r>
       <r>   -45.5059     0.0000     8.0000 </r>
       <r>   -45.0587     0.0000     8.0000 </r>
       <r>   -44.6115     0.0000     8.0000 </r>
       <r>   -44.1644     0.0000     8.0000 </r>
       <r>   -43.7172     0.0000     8.0000 </r>
       <r>   -43.2700     0.0000     8.0000 </r>
       <r>   -42.8229     0.0000     8.0000 </r>
       <r>   -42.3757     0.0000     8.0000 </r>
       <r>   -41.9285     0.0000     8.0000 </r>
       <r>   -41.4814     0.0000     8.0000 </r>
       <r>   -41.0342     0.0000     8.0000 </r>
       <r>   -40.5870     0.0000     8.0000 </r>
       <r>   -40.1399     0.0000     8.0000 </r>
       <r>   -39.6927     0.0000     8.0000 </r>
       <r>   -39.2455     0.0000     8.0000 </r>
       <r>   -38.7984     0.0000     8.0000 </r>
       <r>   -38.3512     0.0000     8.0000 </r>
       <r>   -37.9040     0.0000     8.0000 </r>
       <r>   -37.4569     0.0000     8.0000 </r>
       <r>   -37.0097     0.0000     8.0000 </r>
       <r>   -36.5625     0.0000     8.0000 </r>
       <r>   -36.1154     0.0000     8.0000 </r>
       <r>   -35.6682     0.0000     8.0000 </r>
       <r>   -35.2210     0.0000     8.0000 </r>
       <r>   -34.7739     0.0000     8.0000 </r>
       <r>   -34.3267     0.0000     8.0000 </r>
       <r>   -33.8795     0.0000     8.0000 </r>
       <r>   -33.4324     0.0000     8.0000 </r>
       <r>   -32.9852     0.0000     8.0000 </r>
       <r>   -32.5380     0.0000     8.0000 </r>
       <r>   -32.0909     0.0000     8.0000 </r>
       <r>   -31.6437     0.0000     8.0000 </r>
       <r>   -31.1965     0.0000     8.0000 </r>
       <r>   -30.7494     0.0000     8.0000 </r>
       <r>   -30.3022     0.0000     8.0000 </r>
       <r>   -29.8550     0.0000     8.0000 </r>
       <r>   -29.4079     0.0000     8.0000 </r>
       <r>   -28.9607     0.0000     8.0000 </r>
       <r>   -28.5135     0.0000     8.0000 </r>
       <r>   -28.0664     0.0000     8.0000 </r>
       <r>   -27.6192     0.0000     8.0000 </r>
       <r>   -27.1720     0.0000     8.0000 </r>
       <r>   -26.7249     0.0000     8.0000 </r>
       <r>   -26.2777     0.0000     8.0000 </r>
       <r>   -25.8305     0.0000     8.0000 </r>
       <r>   -25.3834     0.0000    10.0000 </r>
       <r>   -24.9362     0.0000    10.0000 </r>
       <r>   -24.4890     0.0000    10.0000 </r>
       <r>   -24.0419     0.0000    10.0000 </r>
       <r>   -23.5947     0.0000    10.0000 </r>
       <r>   -23.1476     0.0000    10.0000 </r>
       <r>   -22.7004     0.0000    10.0000 </r>
       <r>   -22.2532     0.0000    10.0000 </r>
       <r>   -21.8061     0.0000    10.0000 </r>
       <r>   -21.3589     0.0000    10.0000 </r>
       <r>   -20.9117     0.0000    10.0000 </r>
       <r>   -20.4646     0.0000    10.0000 </r>
       <r>   -20.0174     0.0000    10.0000 </r>
       <r>   -19.5702     0.0000    10.0000 </r>
       <r>   -19.1231     0.0000    10.0000 </r>
       <r>   -18.6759     0.0000    10.0000 </r>
       <r>   -18.2287     0.0000    10.0000 </r>
       <r>   -17.7816     0.0000    10.0000 </r>
       <r>   -17.3344     0.0000    10.0000 </r>
       <r>   -16.8872     0.0000    10.0000 </r>
       <r>   -16.4401     0.0000    10.0000 </r>
       <r>   -15.9929     0.0000    10.0000 </r>
       <r>   -15.5457     0.0000    10.0000 </r>
       <r>   -15.0986     0.0000    10.0000 </r>
       <r>   -14.6514     0.0000    10.0000 </r>
       <r>   -14.2042     0.0000    10.0000 </r>
       <r>   -13.7571     0.0000    10.0000 </r>
       <r>   -13.3099     0.0000    10.0000 </r>
       <r>   -12.8627     0.0000    10.0000 </r>
       <r>   -12.4156     0.0000    10.0000 </r>
       <r>   -11.9684     0.0000    10.0000 </r>
       <r>   -11.5212     0.0000    10.0000 </r>
       <r>   -11.0741     0.0000    10.0000 </r>
       <r>   -10.6269     0.0778    10.0348 </r>
       <r>   -10.1797     0.0000    10.3673 </r>
       <r>    -9.7326     0.0000    10.8571 </r>
       <r>    -9.2854     1.0294    11.6576 </r>
       <r>    -8.8382     0.3647    13.8366 </r>
       <r>    -8.3911     1.4282    16.9516 </r>
       <r>    -7.9439     0.2286    18.3471 </r>
       <r>    -7.4967     0.9393    20.0527 </r>
       <r>    -7.0496     0.0853    21.8749 </r>
       <r>    -6.6024     0.0000    22.0000 </r>
       <r>    -6.1552     0.0000    22.0000 </r>
       <r>    -5.7081     0.0000    22.0000 </r>
       <r>    -5.2609     0.0000    22.0000 </r>
       <r>    -4.8137     0.0000    22.0000 </r>
       <r>    -4.3666     0.0000    22.0000 </r>
       <r>    -3.9194     0.0000    22.0000 </r>
       <r>    -3.4722     0.0000    22.0000 </r>
       <r>    -3.0251     0.7322    22.9805 </r>
       <r>    -2.5779     0.2840    24.2494 </r>
       <r>    -2.1307     0.3637    25.4279 </r>
       <r>    -1.6836     0.0304    26.2857 </r>
       <r>    -1.2364     0.2463    26.6135 </r>
       <r>    -0.7893     0.0000    27.4286 </r>
       <r>    -0.3421     0.6723    28.5455 </r>
       <r>     0.1051     0.4283    29.8242 </r>
       <r>     0.5522     1.0597    32.5011 </r>
       <r>     0.9994     0.7302    33.4014 </r>
       <r>     1.4466     0.7043    35.0769 </r>
       <r>     1.8937     0.6973    36.4342 </r>
       <r>     2.3409     0.4167    37.8870 </r>
       <r>     2.7881     0.0000    39.2517 </r>
       <r>     3.2352     0.1521    39.7007 </r>
       <r>     3.6824     0.0609    40.0000 </r>
       <r>     4.1296     0.0000    40.0000 </r>
       <r>     4.5767     0.0000    40.0000 </r>
       <r>     5.0239     0.0000    40.0000 </r>
       <r>     5.4711     0.0022    40.1098 </r>
       <r>     5.9182     0.0000    40.4082 </r>
       <r>     6.3654     0.0000    40.7891 </r>
       <r>     6.8126     0.5846    42.3022 </r>
       <r>     7.2597     0.0001    43.8504 </r>
       <r>     7.7069     0.3040    45.9590 </r>
       <r>     8.1541     1.0936    47.8632 </r>
       <r>     8.6012     0.8298    49.5139 </r>
       <r>     9.0484     0.0002    50.4218 </r>
       <r>     9.4956     1.1254    52.7481 </r>
       <r>     9.9427     1.0938    55.4551 </r>
       <r>    10.3899     0.4791    56.7857 </r>
       <r>    10.8371     0.4854    59.2919 </r>
       <r>    11.2842     0.3100    61.9345 </r>
       <r>    11.7314     0.2082    63.4673 </r>
       <r>    12.1786     0.6147    65.0368 </r>
       <r>    12.6257     1.1983    67.6923 </r>
       <r>    13.0729     0.3901    69.2357 </r>
       <r>    13.5201     0.3126    70.7792 </r>
       <r>    13.9672     0.5721    72.6640 </r>
       <r>    14.4144     0.9311    75.5456 </r>
       <r>    14.8616     0.1217    77.4150 </r>
       <r>    15.3087     1.1852    79.7545 </r>
       <r>    15.7559     0.3174    81.8834 </r>
       <r>    16.2031     0.4870    83.2110 </r>
       <r>    16.6502     0.3216    84.7288 </r>
       <r>    17.0974     0.8525    86.5173 </r>
       <r>    17.5446     0.8774    89.1951 </r>
       <r>    17.9917     0.9119    91.5506 </r>
       <r>    18.4389     0.0319    92.8170 </r>
       <r>    18.8861     0.4982    94.7534 </r>
       <r>    19.3332     0.1217    95.6735 </r>
       <r>    19.7804     0.0000    95.9456 </r>
       <r>    20.2276     0.0000    96.0000 </r>
       <r>    20.6747     0.0000    96.0000 </r>
       <r>    21.1219     0.0000    96.0000 </r>
       <r>    21.5690     0.0000    96.0000 </r>
       <r>    22.0162     0.0000    96.0000 </r>
       <r>    22.4634     0.0000    96.0000 </r>
       <r>    22.9105     0.0000    96.0000 </r>
       <r>    23.3577     0.0000    96.0000 </r>
       <r>    23.8049     0.0000    96.0000 </r>
       <r>    24.2520     0.0000    96.0000 </r>
       <r>    24.6992     0.0000    96.0000 </r>
       <r>    25.1464     0.0000    96.0000 </r>
       <r>    25.5935     0.0000    96.0000 </r>
       <r>    26.0407     0.0000    96.0000 </r>
      </set>
     </set>
    </array>
   </total>
  </dos>
 </calculation>
 <structure name="finalpos" >
  <crystal>
   <varray name="basis" >
    <v>       3.64446899       0.00000000      -0.00000000 </v>
    <v>       0.00000000       3.64446899       0.00000000 </v>
    <v>       0.00000000       0.00000000       9.78381861 </v>
   </varray>
   <i name="volume">    129.95018760 </i>
   <varray name="rec_basis" >
    <v>       0.27438840       0.00000000       0.00000000 </v>
    <v>      -0.00000000       0.27438840       0.00000000 </v>
    <v>       0.00000000      -0.00000000       0.10220958 </v>
   </varray>
  </crystal>
  <varray name="positions" >
   <v>       0.00000000       0.00000000       0.50000000 </v>
   <v>       0.00000000       0.50000000       0.14297177 </v>
   <v>       0.00000000       0.50000000       0.85702823 </v>
   <v>       0.50000000       0.00000000       0.85702823 </v>
   <v>       0.50000000       0.00000000       0.14297177 </v>
   <v>       0.00000000       0.00000000       0.00000000 </v>
   <v>       0.50000000       0.50000000       0.26060231 </v>
   <v>       0.50000000       0.50000000       0.73939769 </v>
  </varray>
 </structure>
</modeling>
