  15  15   0   0
  0.7132899E+01  0.5211290E-09  0.5211290E-09  0.5211284E-09  0.5000000E-15
   1.0000000000000000E-004
  CAR 
 Be4P3Rb                                 
     22.71615594    -16.3964386510001      5.08810980      1.00000000
    -16.396  0.0000E+00  0.0000E+00
    -16.393  0.0000E+00  0.0000E+00
    -16.389  0.0000E+00  0.0000E+00
    -16.385  0.0000E+00  0.0000E+00
    -16.381  0.0000E+00  0.0000E+00
    -16.377  0.0000E+00  0.0000E+00
    -16.373  0.0000E+00  0.0000E+00
    -16.369  0.0000E+00  0.0000E+00
    -16.365  0.0000E+00  0.0000E+00
    -16.361  0.0000E+00  0.0000E+00
    -16.357  0.0000E+00  0.0000E+00
    -16.353  0.0000E+00  0.0000E+00
    -16.350  0.0000E+00  0.0000E+00
    -16.346  0.0000E+00  0.0000E+00
    -16.342  0.0000E+00  0.0000E+00
    -16.338  0.0000E+00  0.0000E+00
    -16.334  0.0000E+00  0.0000E+00
    -16.330  0.0000E+00  0.0000E+00
    -16.326  0.0000E+00  0.0000E+00
    -16.322  0.0000E+00  0.0000E+00
    -16.318  0.0000E+00  0.0000E+00
    -16.314  0.0000E+00  0.0000E+00
    -16.310  0.0000E+00  0.0000E+00
    -16.306  0.0000E+00  0.0000E+00
    -16.303  0.0000E+00  0.0000E+00
    -16.299  0.0000E+00  0.0000E+00
    -16.295  0.0000E+00  0.0000E+00
    -16.291  0.0000E+00  0.0000E+00
    -16.287  0.0000E+00  0.0000E+00
    -16.283  0.0000E+00  0.0000E+00
    -16.279  0.0000E+00  0.0000E+00
    -16.275  0.0000E+00  0.0000E+00
    -16.271  0.0000E+00  0.0000E+00
    -16.267  0.0000E+00  0.0000E+00
    -16.263  0.0000E+00  0.0000E+00
    -16.260  0.0000E+00  0.0000E+00
    -16.256  0.0000E+00  0.0000E+00
    -16.252  0.0000E+00  0.0000E+00
    -16.248  0.0000E+00  0.0000E+00
    -16.244  0.0000E+00  0.0000E+00
    -16.240  0.0000E+00  0.0000E+00
    -16.236  0.0000E+00  0.0000E+00
    -16.232  0.0000E+00  0.0000E+00
    -16.228  0.0000E+00  0.0000E+00
    -16.224  0.0000E+00  0.0000E+00
    -16.220  0.0000E+00  0.0000E+00
    -16.217  0.0000E+00  0.0000E+00
    -16.213  0.0000E+00  0.0000E+00
    -16.209  0.0000E+00  0.0000E+00
    -16.205  0.0000E+00  0.0000E+00
    -16.201  0.0000E+00  0.0000E+00
    -16.197  0.0000E+00  0.0000E+00
    -16.193  0.0000E+00  0.0000E+00
    -16.189  0.0000E+00  0.0000E+00
    -16.185  0.0000E+00  0.0000E+00
    -16.181  0.0000E+00  0.0000E+00
    -16.177  0.0000E+00  0.0000E+00
    -16.173  0.0000E+00  0.0000E+00
    -16.170  0.0000E+00  0.0000E+00
    -16.166  0.0000E+00  0.0000E+00
    -16.162  0.0000E+00  0.0000E+00
    -16.158  0.0000E+00  0.0000E+00
    -16.154  0.0000E+00  0.0000E+00
    -16.150  0.0000E+00  0.0000E+00
    -16.146  0.0000E+00  0.0000E+00
    -16.142  0.0000E+00  0.0000E+00
    -16.138  0.0000E+00  0.0000E+00
    -16.134  0.0000E+00  0.0000E+00
    -16.130  0.0000E+00  0.0000E+00
    -16.127  0.0000E+00  0.0000E+00
    -16.123  0.0000E+00  0.0000E+00
    -16.119  0.0000E+00  0.0000E+00
    -16.115  0.0000E+00  0.0000E+00
    -16.111  0.0000E+00  0.0000E+00
    -16.107  0.0000E+00  0.0000E+00
    -16.103  0.0000E+00  0.0000E+00
    -16.099  0.0000E+00  0.0000E+00
    -16.095  0.0000E+00  0.0000E+00
    -16.091  0.0000E+00  0.0000E+00
    -16.087  0.0000E+00  0.0000E+00
    -16.084  0.0000E+00  0.0000E+00
    -16.080  0.0000E+00  0.0000E+00
    -16.076  0.0000E+00  0.0000E+00
    -16.072  0.0000E+00  0.0000E+00
    -16.068  0.0000E+00  0.0000E+00
    -16.064  0.0000E+00  0.0000E+00
    -16.060  0.0000E+00  0.0000E+00
    -16.056  0.0000E+00  0.0000E+00
    -16.052  0.0000E+00  0.0000E+00
    -16.048  0.0000E+00  0.0000E+00
    -16.044  0.0000E+00  0.0000E+00
    -16.041  0.0000E+00  0.0000E+00
    -16.037  0.0000E+00  0.0000E+00
    -16.033  0.0000E+00  0.0000E+00
    -16.029  0.0000E+00  0.0000E+00
    -16.025  0.0000E+00  0.0000E+00
    -16.021  0.0000E+00  0.0000E+00
    -16.017  0.0000E+00  0.0000E+00
    -16.013  0.0000E+00  0.0000E+00
    -16.009  0.0000E+00  0.0000E+00
    -16.005  0.0000E+00  0.0000E+00
    -16.001  0.0000E+00  0.0000E+00
    -15.997  0.0000E+00  0.0000E+00
    -15.994  0.0000E+00  0.0000E+00
    -15.990  0.0000E+00  0.0000E+00
    -15.986  0.0000E+00  0.0000E+00
    -15.982  0.0000E+00  0.0000E+00
    -15.978  0.0000E+00  0.0000E+00
    -15.974  0.0000E+00  0.0000E+00
    -15.970  0.0000E+00  0.0000E+00
    -15.966  0.0000E+00  0.0000E+00
    -15.962  0.0000E+00  0.0000E+00
    -15.958  0.0000E+00  0.0000E+00
    -15.954  0.0000E+00  0.0000E+00
    -15.951  0.0000E+00  0.0000E+00
    -15.947  0.0000E+00  0.0000E+00
    -15.943  0.0000E+00  0.0000E+00
    -15.939  0.0000E+00  0.0000E+00
    -15.935  0.0000E+00  0.0000E+00
    -15.931  0.0000E+00  0.0000E+00
    -15.927  0.0000E+00  0.0000E+00
    -15.923  0.0000E+00  0.0000E+00
    -15.919  0.0000E+00  0.0000E+00
    -15.915  0.0000E+00  0.0000E+00
    -15.911  0.0000E+00  0.0000E+00
    -15.908  0.0000E+00  0.0000E+00
    -15.904  0.0000E+00  0.0000E+00
    -15.900  0.0000E+00  0.0000E+00
    -15.896  0.0000E+00  0.0000E+00
    -15.892  0.0000E+00  0.0000E+00
    -15.888  0.0000E+00  0.0000E+00
    -15.884  0.0000E+00  0.0000E+00
    -15.880  0.0000E+00  0.0000E+00
    -15.876  0.0000E+00  0.0000E+00
    -15.872  0.0000E+00  0.0000E+00
    -15.868  0.0000E+00  0.0000E+00
    -15.865  0.0000E+00  0.0000E+00
    -15.861  0.0000E+00  0.0000E+00
    -15.857  0.0000E+00  0.0000E+00
    -15.853  0.0000E+00  0.0000E+00
    -15.849  0.0000E+00  0.0000E+00
    -15.845  0.0000E+00  0.0000E+00
    -15.841  0.0000E+00  0.0000E+00
    -15.837  0.0000E+00  0.0000E+00
    -15.833  0.0000E+00  0.0000E+00
    -15.829  0.0000E+00  0.0000E+00
    -15.825  0.0000E+00  0.0000E+00
    -15.821  0.0000E+00  0.0000E+00
    -15.818  0.0000E+00  0.0000E+00
    -15.814  0.0000E+00  0.0000E+00
    -15.810  0.0000E+00  0.0000E+00
    -15.806  0.0000E+00  0.0000E+00
    -15.802  0.0000E+00  0.0000E+00
    -15.798  0.0000E+00  0.0000E+00
    -15.794  0.0000E+00  0.0000E+00
    -15.790  0.0000E+00  0.0000E+00
    -15.786  0.0000E+00  0.0000E+00
    -15.782  0.0000E+00  0.0000E+00
    -15.778  0.0000E+00  0.0000E+00
    -15.775  0.0000E+00  0.0000E+00
    -15.771  0.0000E+00  0.0000E+00
    -15.767  0.0000E+00  0.0000E+00
    -15.763  0.0000E+00  0.0000E+00
    -15.759  0.0000E+00  0.0000E+00
    -15.755  0.0000E+00  0.0000E+00
    -15.751  0.0000E+00  0.0000E+00
    -15.747  0.0000E+00  0.0000E+00
    -15.743  0.0000E+00  0.0000E+00
    -15.739  0.0000E+00  0.0000E+00
    -15.735  0.0000E+00  0.0000E+00
    -15.732  0.0000E+00  0.0000E+00
    -15.728  0.0000E+00  0.0000E+00
    -15.724  0.0000E+00  0.0000E+00
    -15.720  0.0000E+00  0.0000E+00
    -15.716  0.0000E+00  0.0000E+00
    -15.712  0.0000E+00  0.0000E+00
    -15.708  0.0000E+00  0.0000E+00
    -15.704  0.0000E+00  0.0000E+00
    -15.700  0.0000E+00  0.0000E+00
    -15.696  0.0000E+00  0.0000E+00
    -15.692  0.0000E+00  0.0000E+00
    -15.689  0.0000E+00  0.0000E+00
    -15.685  0.0000E+00  0.0000E+00
    -15.681  0.0000E+00  0.0000E+00
    -15.677  0.0000E+00  0.0000E+00
    -15.673  0.0000E+00  0.0000E+00
    -15.669  0.0000E+00  0.0000E+00
    -15.665  0.0000E+00  0.0000E+00
    -15.661  0.0000E+00  0.0000E+00
    -15.657  0.0000E+00  0.0000E+00
    -15.653  0.0000E+00  0.0000E+00
    -15.649  0.0000E+00  0.0000E+00
    -15.645  0.0000E+00  0.0000E+00
    -15.642  0.0000E+00  0.0000E+00
    -15.638  0.0000E+00  0.0000E+00
    -15.634  0.0000E+00  0.0000E+00
    -15.630  0.0000E+00  0.0000E+00
    -15.626  0.0000E+00  0.0000E+00
    -15.622  0.0000E+00  0.0000E+00
    -15.618  0.0000E+00  0.0000E+00
    -15.614  0.0000E+00  0.0000E+00
    -15.610  0.0000E+00  0.0000E+00
    -15.606  0.0000E+00  0.0000E+00
    -15.602  0.0000E+00  0.0000E+00
    -15.599  0.0000E+00  0.0000E+00
    -15.595  0.0000E+00  0.0000E+00
    -15.591  0.0000E+00  0.0000E+00
    -15.587  0.0000E+00  0.0000E+00
    -15.583  0.0000E+00  0.0000E+00
    -15.579  0.0000E+00  0.0000E+00
    -15.575  0.0000E+00  0.0000E+00
    -15.571  0.0000E+00  0.0000E+00
    -15.567  0.0000E+00  0.0000E+00
    -15.563  0.0000E+00  0.0000E+00
    -15.559  0.0000E+00  0.0000E+00
    -15.556  0.0000E+00  0.0000E+00
    -15.552  0.0000E+00  0.0000E+00
    -15.548  0.0000E+00  0.0000E+00
    -15.544  0.0000E+00  0.0000E+00
    -15.540  0.0000E+00  0.0000E+00
    -15.536  0.0000E+00  0.0000E+00
    -15.532  0.0000E+00  0.0000E+00
    -15.528  0.0000E+00  0.0000E+00
    -15.524  0.0000E+00  0.0000E+00
    -15.520  0.0000E+00  0.0000E+00
    -15.516  0.0000E+00  0.0000E+00
    -15.512  0.0000E+00  0.0000E+00
    -15.509  0.0000E+00  0.0000E+00
    -15.505  0.0000E+00  0.0000E+00
    -15.501  0.0000E+00  0.0000E+00
    -15.497  0.0000E+00  0.0000E+00
    -15.493  0.0000E+00  0.0000E+00
    -15.489  0.0000E+00  0.0000E+00
    -15.485  0.0000E+00  0.0000E+00
    -15.481  0.0000E+00  0.0000E+00
    -15.477  0.0000E+00  0.0000E+00
    -15.473  0.0000E+00  0.0000E+00
    -15.469  0.0000E+00  0.0000E+00
    -15.466  0.0000E+00  0.0000E+00
    -15.462  0.0000E+00  0.0000E+00
    -15.458  0.0000E+00  0.0000E+00
    -15.454  0.0000E+00  0.0000E+00
    -15.450  0.0000E+00  0.0000E+00
    -15.446  0.0000E+00  0.0000E+00
    -15.442  0.0000E+00  0.0000E+00
    -15.438  0.0000E+00  0.0000E+00
    -15.434  0.0000E+00  0.0000E+00
    -15.430  0.0000E+00  0.0000E+00
    -15.426  0.0000E+00  0.0000E+00
    -15.423  0.0000E+00  0.0000E+00
    -15.419  0.0000E+00  0.0000E+00
    -15.415  0.0000E+00  0.0000E+00
    -15.411  0.0000E+00  0.0000E+00
    -15.407  0.0000E+00  0.0000E+00
    -15.403  0.0000E+00  0.0000E+00
    -15.399  0.0000E+00  0.0000E+00
    -15.395  0.0000E+00  0.0000E+00
    -15.391  0.0000E+00  0.0000E+00
    -15.387  0.0000E+00  0.0000E+00
    -15.383  0.0000E+00  0.0000E+00
    -15.380  0.0000E+00  0.0000E+00
    -15.376  0.0000E+00  0.0000E+00
    -15.372  0.0000E+00  0.0000E+00
    -15.368  0.0000E+00  0.0000E+00
    -15.364  0.0000E+00  0.0000E+00
    -15.360  0.0000E+00  0.0000E+00
    -15.356  0.0000E+00  0.0000E+00
    -15.352  0.0000E+00  0.0000E+00
    -15.348  0.0000E+00  0.0000E+00
    -15.344  0.0000E+00  0.0000E+00
    -15.340  0.0000E+00  0.0000E+00
    -15.336  0.0000E+00  0.0000E+00
    -15.333  0.0000E+00  0.0000E+00
    -15.329  0.0000E+00  0.0000E+00
    -15.325  0.0000E+00  0.0000E+00
    -15.321  0.0000E+00  0.0000E+00
    -15.317  0.0000E+00  0.0000E+00
    -15.313  0.0000E+00  0.0000E+00
    -15.309  0.0000E+00  0.0000E+00
    -15.305  0.0000E+00  0.0000E+00
    -15.301  0.0000E+00  0.0000E+00
    -15.297  0.0000E+00  0.0000E+00
    -15.293  0.0000E+00  0.0000E+00
    -15.290  0.0000E+00  0.0000E+00
    -15.286  0.0000E+00  0.0000E+00
    -15.282  0.0000E+00  0.0000E+00
    -15.278  0.0000E+00  0.0000E+00
    -15.274  0.0000E+00  0.0000E+00
    -15.270  0.0000E+00  0.0000E+00
    -15.266  0.0000E+00  0.0000E+00
    -15.262  0.0000E+00  0.0000E+00
    -15.258  0.0000E+00  0.0000E+00
    -15.254  0.0000E+00  0.0000E+00
    -15.250  0.0000E+00  0.0000E+00
    -15.247  0.0000E+00  0.0000E+00
    -15.243  0.0000E+00  0.0000E+00
    -15.239  0.0000E+00  0.0000E+00
    -15.235  0.0000E+00  0.0000E+00
    -15.231  0.0000E+00  0.0000E+00
    -15.227  0.0000E+00  0.0000E+00
    -15.223  0.0000E+00  0.0000E+00
    -15.219  0.0000E+00  0.0000E+00
    -15.215  0.0000E+00  0.0000E+00
    -15.211  0.0000E+00  0.0000E+00
    -15.207  0.0000E+00  0.0000E+00
    -15.204  0.0000E+00  0.0000E+00
    -15.200  0.0000E+00  0.0000E+00
    -15.196  0.0000E+00  0.0000E+00
    -15.192  0.0000E+00  0.0000E+00
    -15.188  0.0000E+00  0.0000E+00
    -15.184  0.0000E+00  0.0000E+00
    -15.180  0.0000E+00  0.0000E+00
    -15.176  0.0000E+00  0.0000E+00
    -15.172  0.0000E+00  0.0000E+00
    -15.168  0.0000E+00  0.0000E+00
    -15.164  0.0000E+00  0.0000E+00
    -15.160  0.0000E+00  0.0000E+00
    -15.157  0.0000E+00  0.0000E+00
    -15.153  0.0000E+00  0.0000E+00
    -15.149  0.0000E+00  0.0000E+00
    -15.145  0.0000E+00  0.0000E+00
    -15.141  0.0000E+00  0.0000E+00
    -15.137  0.0000E+00  0.0000E+00
    -15.133  0.0000E+00  0.0000E+00
    -15.129  0.0000E+00  0.0000E+00
    -15.125  0.0000E+00  0.0000E+00
    -15.121  0.0000E+00  0.0000E+00
    -15.117  0.0000E+00  0.0000E+00
    -15.114  0.0000E+00  0.0000E+00
    -15.110  0.0000E+00  0.0000E+00
    -15.106  0.0000E+00  0.0000E+00
    -15.102  0.0000E+00  0.0000E+00
    -15.098  0.0000E+00  0.0000E+00
    -15.094  0.0000E+00  0.0000E+00
    -15.090  0.0000E+00  0.0000E+00
    -15.086  0.0000E+00  0.0000E+00
    -15.082  0.0000E+00  0.0000E+00
    -15.078  0.0000E+00  0.0000E+00
    -15.074  0.0000E+00  0.0000E+00
    -15.071  0.0000E+00  0.0000E+00
    -15.067  0.0000E+00  0.0000E+00
    -15.063  0.0000E+00  0.0000E+00
    -15.059  0.0000E+00  0.0000E+00
    -15.055  0.0000E+00  0.0000E+00
    -15.051  0.0000E+00  0.0000E+00
    -15.047  0.0000E+00  0.0000E+00
    -15.043  0.0000E+00  0.0000E+00
    -15.039  0.0000E+00  0.0000E+00
    -15.035  0.0000E+00  0.0000E+00
    -15.031  0.0000E+00  0.0000E+00
    -15.027  0.0000E+00  0.0000E+00
    -15.024  0.0000E+00  0.0000E+00
    -15.020  0.0000E+00  0.0000E+00
    -15.016  0.0000E+00  0.0000E+00
    -15.012  0.0000E+00  0.0000E+00
    -15.008  0.0000E+00  0.0000E+00
    -15.004  0.0000E+00  0.0000E+00
    -15.000  0.0000E+00  0.0000E+00
    -14.996  0.0000E+00  0.0000E+00
    -14.992  0.0000E+00  0.0000E+00
    -14.988  0.0000E+00  0.0000E+00
    -14.984  0.0000E+00  0.0000E+00
    -14.981  0.0000E+00  0.0000E+00
    -14.977  0.0000E+00  0.0000E+00
    -14.973  0.0000E+00  0.0000E+00
    -14.969  0.0000E+00  0.0000E+00
    -14.965  0.0000E+00  0.0000E+00
    -14.961  0.0000E+00  0.0000E+00
    -14.957  0.0000E+00  0.0000E+00
    -14.953  0.0000E+00  0.0000E+00
    -14.949  0.0000E+00  0.0000E+00
    -14.945  0.0000E+00  0.0000E+00
    -14.941  0.0000E+00  0.0000E+00
    -14.938  0.0000E+00  0.0000E+00
    -14.934  0.0000E+00  0.0000E+00
    -14.930  0.0000E+00  0.0000E+00
    -14.926  0.0000E+00  0.0000E+00
    -14.922  0.0000E+00  0.0000E+00
    -14.918  0.0000E+00  0.0000E+00
    -14.914  0.0000E+00  0.0000E+00
    -14.910  0.0000E+00  0.0000E+00
    -14.906  0.0000E+00  0.0000E+00
    -14.902  0.0000E+00  0.0000E+00
    -14.898  0.0000E+00  0.0000E+00
    -14.895  0.0000E+00  0.0000E+00
    -14.891  0.0000E+00  0.0000E+00
    -14.887  0.0000E+00  0.0000E+00
    -14.883  0.0000E+00  0.0000E+00
    -14.879  0.0000E+00  0.0000E+00
    -14.875  0.0000E+00  0.0000E+00
    -14.871  0.0000E+00  0.0000E+00
    -14.867  0.0000E+00  0.0000E+00
    -14.863  0.0000E+00  0.0000E+00
    -14.859  0.0000E+00  0.0000E+00
    -14.855  0.0000E+00  0.0000E+00
    -14.851  0.0000E+00  0.0000E+00
    -14.848  0.0000E+00  0.0000E+00
    -14.844  0.0000E+00  0.0000E+00
    -14.840  0.0000E+00  0.0000E+00
    -14.836  0.0000E+00  0.0000E+00
    -14.832  0.0000E+00  0.0000E+00
    -14.828  0.0000E+00  0.0000E+00
    -14.824  0.0000E+00  0.0000E+00
    -14.820  0.0000E+00  0.0000E+00
    -14.816  0.0000E+00  0.0000E+00
    -14.812  0.0000E+00  0.0000E+00
    -14.808  0.0000E+00  0.0000E+00
    -14.805  0.0000E+00  0.0000E+00
    -14.801  0.0000E+00  0.0000E+00
    -14.797  0.0000E+00  0.0000E+00
    -14.793  0.0000E+00  0.0000E+00
    -14.789  0.0000E+00  0.0000E+00
    -14.785  0.0000E+00  0.0000E+00
    -14.781  0.0000E+00  0.0000E+00
    -14.777  0.0000E+00  0.0000E+00
    -14.773  0.0000E+00  0.0000E+00
    -14.769  0.0000E+00  0.0000E+00
    -14.765  0.0000E+00  0.0000E+00
    -14.762  0.0000E+00  0.0000E+00
    -14.758  0.0000E+00  0.0000E+00
    -14.754  0.0000E+00  0.0000E+00
    -14.750  0.0000E+00  0.0000E+00
    -14.746  0.0000E+00  0.0000E+00
    -14.742  0.0000E+00  0.0000E+00
    -14.738  0.0000E+00  0.0000E+00
    -14.734  0.0000E+00  0.0000E+00
    -14.730  0.0000E+00  0.0000E+00
    -14.726  0.0000E+00  0.0000E+00
    -14.722  0.0000E+00  0.0000E+00
    -14.719  0.0000E+00  0.0000E+00
    -14.715  0.0000E+00  0.0000E+00
    -14.711  0.0000E+00  0.0000E+00
    -14.707  0.0000E+00  0.0000E+00
    -14.703  0.0000E+00  0.0000E+00
    -14.699  0.0000E+00  0.0000E+00
    -14.695  0.0000E+00  0.0000E+00
    -14.691  0.0000E+00  0.0000E+00
    -14.687  0.0000E+00  0.0000E+00
    -14.683  0.0000E+00  0.0000E+00
    -14.679  0.0000E+00  0.0000E+00
    -14.675  0.4435E-15  0.1735E-17
    -14.672  0.3332E-13  0.1321E-15
    -14.668  0.1933E-11  0.7694E-14
    -14.664  0.8295E-10  0.3321E-12
    -14.660  0.2632E-08  0.1063E-10
    -14.656  0.6182E-07  0.2524E-09
    -14.652  0.1074E-05  0.4455E-08
    -14.648  0.1383E-04  0.5854E-07
    -14.644  0.1318E-03  0.5742E-06
    -14.640  0.9315E-03  0.4218E-05
    -14.636  0.4878E-02  0.2330E-04
    -14.632  0.1894E-01  0.9739E-04
    -14.629  0.5457E-01  0.3108E-03
    -14.625  0.1166E+00  0.7670E-03
    -14.621  0.1852E+00  0.1491E-02
    -14.617  0.2198E+00  0.2351E-02
    -14.613  0.2015E+00  0.3139E-02
    -14.609  0.1664E+00  0.3790E-02
    -14.605  0.1799E+00  0.4494E-02
    -14.601  0.2705E+00  0.5552E-02
    -14.597  0.3883E+00  0.7071E-02
    -14.593  0.4390E+00  0.8788E-02
    -14.589  0.3848E+00  0.1029E-01
    -14.586  0.3068E+00  0.1149E-01
    -14.582  0.3601E+00  0.1290E-01
    -14.578  0.6714E+00  0.1553E-01
    -14.574  0.1234E+01  0.2035E-01
    -14.570  0.1854E+01  0.2760E-01
    -14.566  0.2234E+01  0.3634E-01
    -14.562  0.2172E+01  0.4484E-01
    -14.558  0.1704E+01  0.5150E-01
    -14.554  0.1086E+01  0.5575E-01
    -14.550  0.6347E+00  0.5823E-01
    -14.546  0.5568E+00  0.6041E-01
    -14.543  0.8688E+00  0.6381E-01
    -14.539  0.1372E+01  0.6917E-01
    -14.535  0.1717E+01  0.7589E-01
    -14.531  0.1668E+01  0.8241E-01
    -14.527  0.1363E+01  0.8774E-01
    -14.523  0.1166E+01  0.9230E-01
    -14.519  0.1233E+01  0.9713E-01
    -14.515  0.1352E+01  0.1024E+00
    -14.511  0.1234E+01  0.1072E+00
    -14.507  0.8659E+00  0.1106E+00
    -14.503  0.4777E+00  0.1125E+00
    -14.499  0.2891E+00  0.1136E+00
    -14.496  0.3913E+00  0.1152E+00
    -14.492  0.7796E+00  0.1182E+00
    -14.488  0.1356E+01  0.1235E+00
    -14.484  0.1953E+01  0.1312E+00
    -14.480  0.2462E+01  0.1408E+00
    -14.476  0.2902E+01  0.1521E+00
    -14.472  0.3322E+01  0.1651E+00
    -14.468  0.3669E+01  0.1795E+00
    -14.464  0.3786E+01  0.1943E+00
    -14.460  0.3570E+01  0.2082E+00
    -14.456  0.3128E+01  0.2205E+00
    -14.453  0.2693E+01  0.2310E+00
    -14.449  0.2448E+01  0.2406E+00
    -14.445  0.2469E+01  0.2502E+00
    -14.441  0.2653E+01  0.2606E+00
    -14.437  0.2752E+01  0.2714E+00
    -14.433  0.2656E+01  0.2818E+00
    -14.429  0.2605E+01  0.2920E+00
    -14.425  0.2979E+01  0.3036E+00
    -14.421  0.3903E+01  0.3189E+00
    -14.417  0.5010E+01  0.3385E+00
    -14.413  0.5587E+01  0.3603E+00
    -14.410  0.5140E+01  0.3804E+00
    -14.406  0.3932E+01  0.3958E+00
    -14.402  0.2730E+01  0.4065E+00
    -14.398  0.1999E+01  0.4143E+00
    -14.394  0.1587E+01  0.4205E+00
    -14.390  0.1174E+01  0.4251E+00
    -14.386  0.7082E+00  0.4279E+00
    -14.382  0.3499E+00  0.4292E+00
    -14.378  0.2370E+00  0.4302E+00
    -14.374  0.4664E+00  0.4320E+00
    -14.370  0.1147E+01  0.4365E+00
    -14.366  0.2244E+01  0.4453E+00
    -14.363  0.3343E+01  0.4583E+00
    -14.359  0.3832E+01  0.4733E+00
    -14.355  0.3518E+01  0.4871E+00
    -14.351  0.2901E+01  0.4984E+00
    -14.347  0.2636E+01  0.5087E+00
    -14.343  0.2854E+01  0.5199E+00
    -14.339  0.3233E+01  0.5325E+00
    -14.335  0.3601E+01  0.5466E+00
    -14.331  0.4115E+01  0.5627E+00
    -14.327  0.4821E+01  0.5816E+00
    -14.323  0.5403E+01  0.6027E+00
    -14.320  0.5541E+01  0.6244E+00
    -14.316  0.5291E+01  0.6451E+00
    -14.312  0.4982E+01  0.6646E+00
    -14.308  0.4798E+01  0.6833E+00
    -14.304  0.4542E+01  0.7011E+00
    -14.300  0.3943E+01  0.7165E+00
    -14.296  0.3148E+01  0.7288E+00
    -14.292  0.2661E+01  0.7392E+00
    -14.288  0.2684E+01  0.7497E+00
    -14.284  0.2795E+01  0.7607E+00
    -14.280  0.2505E+01  0.7705E+00
    -14.277  0.1920E+01  0.7780E+00
    -14.273  0.1629E+01  0.7843E+00
    -14.269  0.2069E+01  0.7924E+00
    -14.265  0.3145E+01  0.8047E+00
    -14.261  0.4311E+01  0.8216E+00
    -14.257  0.4974E+01  0.8411E+00
    -14.253  0.4962E+01  0.8605E+00
    -14.249  0.4643E+01  0.8786E+00
    -14.245  0.4426E+01  0.8959E+00
    -14.241  0.4242E+01  0.9125E+00
    -14.237  0.3767E+01  0.9273E+00
    -14.234  0.3094E+01  0.9394E+00
    -14.230  0.2851E+01  0.9505E+00
    -14.226  0.3513E+01  0.9643E+00
    -14.222  0.4786E+01  0.9830E+00
    -14.218  0.5851E+01  0.1006E+01
    -14.214  0.6097E+01  0.1030E+01
    -14.210  0.5441E+01  0.1051E+01
    -14.206  0.4149E+01  0.1067E+01
    -14.202  0.2653E+01  0.1078E+01
    -14.198  0.1428E+01  0.1083E+01
    -14.194  0.7743E+00  0.1086E+01
    -14.190  0.7228E+00  0.1089E+01
    -14.187  0.1101E+01  0.1093E+01
    -14.183  0.1668E+01  0.1100E+01
    -14.179  0.2269E+01  0.1109E+01
    -14.175  0.2916E+01  0.1120E+01
    -14.171  0.3669E+01  0.1134E+01
    -14.167  0.4595E+01  0.1152E+01
    -14.163  0.5833E+01  0.1175E+01
    -14.159  0.7320E+01  0.1204E+01
    -14.155  0.8457E+01  0.1237E+01
    -14.151  0.8535E+01  0.1270E+01
    -14.147  0.7613E+01  0.1300E+01
    -14.144  0.6538E+01  0.1326E+01
    -14.140  0.6059E+01  0.1349E+01
    -14.136  0.6283E+01  0.1374E+01
    -14.132  0.6903E+01  0.1401E+01
    -14.128  0.7397E+01  0.1430E+01
    -14.124  0.7201E+01  0.1458E+01
    -14.120  0.6296E+01  0.1483E+01
    -14.116  0.5378E+01  0.1504E+01
    -14.112  0.4957E+01  0.1523E+01
    -14.108  0.4789E+01  0.1542E+01
    -14.104  0.4634E+01  0.1560E+01
    -14.101  0.4882E+01  0.1579E+01
    -14.097  0.5876E+01  0.1602E+01
    -14.093  0.7192E+01  0.1630E+01
    -14.089  0.8166E+01  0.1662E+01
    -14.085  0.8581E+01  0.1696E+01
    -14.081  0.8444E+01  0.1729E+01
    -14.077  0.7613E+01  0.1759E+01
    -14.073  0.6037E+01  0.1782E+01
    -14.069  0.4055E+01  0.1798E+01
    -14.065  0.2243E+01  0.1807E+01
    -14.061  0.1006E+01  0.1811E+01
    -14.058  0.3954E+00  0.1812E+01
    -14.054  0.2723E+00  0.1813E+01
    -14.050  0.5561E+00  0.1815E+01
    -14.046  0.1264E+01  0.1820E+01
    -14.042  0.2309E+01  0.1829E+01
    -14.038  0.3308E+01  0.1842E+01
    -14.034  0.3743E+01  0.1857E+01
    -14.030  0.3472E+01  0.1871E+01
    -14.026  0.2955E+01  0.1882E+01
    -14.022  0.2752E+01  0.1893E+01
    -14.018  0.2837E+01  0.1904E+01
    -14.014  0.2712E+01  0.1915E+01
    -14.011  0.2172E+01  0.1923E+01
    -14.007  0.1631E+01  0.1930E+01
    -14.003  0.1618E+01  0.1936E+01
    -13.999  0.2165E+01  0.1944E+01
    -13.995  0.2773E+01  0.1955E+01
    -13.991  0.2949E+01  0.1967E+01
    -13.987  0.2663E+01  0.1977E+01
    -13.983  0.2183E+01  0.1986E+01
    -13.979  0.1654E+01  0.1992E+01
    -13.975  0.1094E+01  0.1996E+01
    -13.971  0.5854E+00  0.1999E+01
    -13.968  0.2417E+00  0.2000E+01
    -13.964  0.7518E-01  0.2000E+01
    -13.960  0.1745E-01  0.2000E+01
    -13.956  0.3012E-02  0.2000E+01
    -13.952  0.3855E-03  0.2000E+01
    -13.948  0.3657E-04  0.2000E+01
    -13.944  0.2576E-05  0.2000E+01
    -13.940  0.2704E-06  0.2000E+01
    -13.936  0.2626E-05  0.2000E+01
    -13.932  0.3725E-04  0.2000E+01
    -13.928  0.3924E-03  0.2000E+01
    -13.925  0.3069E-02  0.2000E+01
    -13.921  0.1786E-01  0.2000E+01
    -13.917  0.7772E-01  0.2000E+01
    -13.913  0.2550E+00  0.2001E+01
    -13.909  0.6415E+00  0.2004E+01
    -13.905  0.1270E+01  0.2009E+01
    -13.901  0.2055E+01  0.2017E+01
    -13.897  0.2810E+01  0.2028E+01
    -13.893  0.3302E+01  0.2041E+01
    -13.889  0.3371E+01  0.2054E+01
    -13.885  0.3166E+01  0.2066E+01
    -13.881  0.3134E+01  0.2079E+01
    -13.878  0.3547E+01  0.2093E+01
    -13.874  0.4226E+01  0.2109E+01
    -13.870  0.4799E+01  0.2128E+01
    -13.866  0.4923E+01  0.2147E+01
    -13.862  0.4343E+01  0.2164E+01
    -13.858  0.3128E+01  0.2176E+01
    -13.854  0.1770E+01  0.2183E+01
    -13.850  0.7692E+00  0.2186E+01
    -13.846  0.2551E+00  0.2187E+01
    -13.842  0.7128E-01  0.2187E+01
    -13.838  0.5078E-01  0.2188E+01
    -13.835  0.1488E+00  0.2188E+01
    -13.831  0.4455E+00  0.2190E+01
    -13.827  0.1112E+01  0.2194E+01
    -13.823  0.2355E+01  0.2204E+01
    -13.819  0.4302E+01  0.2220E+01
    -13.815  0.6842E+01  0.2247E+01
    -13.811  0.9591E+01  0.2285E+01
    -13.807  0.1208E+02  0.2332E+01
    -13.803  0.1388E+02  0.2386E+01
    -13.799  0.1465E+02  0.2443E+01
    -13.795  0.1442E+02  0.2500E+01
    -13.792  0.1381E+02  0.2554E+01
    -13.788  0.1349E+02  0.2607E+01
    -13.784  0.1329E+02  0.2659E+01
    -13.780  0.1240E+02  0.2707E+01
    -13.776  0.1049E+02  0.2748E+01
    -13.772  0.8182E+01  0.2780E+01
    -13.768  0.6171E+01  0.2804E+01
    -13.764  0.4500E+01  0.2822E+01
    -13.760  0.2959E+01  0.2833E+01
    -13.756  0.1626E+01  0.2840E+01
    -13.752  0.7346E+00  0.2843E+01
    -13.749  0.3627E+00  0.2844E+01
    -13.745  0.4730E+00  0.2846E+01
    -13.741  0.1059E+01  0.2850E+01
    -13.737  0.2071E+01  0.2858E+01
    -13.733  0.3216E+01  0.2871E+01
    -13.729  0.4030E+01  0.2887E+01
    -13.725  0.4289E+01  0.2903E+01
    -13.721  0.4233E+01  0.2920E+01
    -13.717  0.4227E+01  0.2936E+01
    -13.713  0.4384E+01  0.2954E+01
    -13.709  0.4604E+01  0.2972E+01
    -13.705  0.4670E+01  0.2990E+01
    -13.702  0.4300E+01  0.3007E+01
    -13.698  0.3534E+01  0.3020E+01
    -13.694  0.3011E+01  0.3032E+01
    -13.690  0.3506E+01  0.3046E+01
    -13.686  0.5124E+01  0.3066E+01
    -13.682  0.7100E+01  0.3094E+01
    -13.678  0.8481E+01  0.3127E+01
    -13.674  0.8935E+01  0.3162E+01
    -13.670  0.8865E+01  0.3197E+01
    -13.666  0.8928E+01  0.3231E+01
    -13.662  0.9406E+01  0.3268E+01
    -13.659  0.9829E+01  0.3307E+01
    -13.655  0.9322E+01  0.3343E+01
    -13.651  0.7478E+01  0.3372E+01
    -13.647  0.4851E+01  0.3391E+01
    -13.643  0.2471E+01  0.3401E+01
    -13.639  0.9686E+00  0.3405E+01
    -13.635  0.2884E+00  0.3406E+01
    -13.631  0.6495E-01  0.3406E+01
    -13.627  0.1351E-01  0.3406E+01
    -13.623  0.1874E-01  0.3406E+01
    -13.619  0.8488E-01  0.3407E+01
    -13.616  0.3104E+00  0.3408E+01
    -13.612  0.8603E+00  0.3411E+01
    -13.608  0.1827E+01  0.3418E+01
    -13.604  0.3034E+01  0.3430E+01
    -13.600  0.4075E+01  0.3446E+01
    -13.596  0.4653E+01  0.3464E+01
    -13.592  0.4861E+01  0.3483E+01
    -13.588  0.5089E+01  0.3503E+01
    -13.584  0.5688E+01  0.3526E+01
    -13.580  0.6640E+01  0.3552E+01
    -13.576  0.7478E+01  0.3581E+01
    -13.573  0.7632E+01  0.3611E+01
    -13.569  0.6986E+01  0.3638E+01
    -13.565  0.6037E+01  0.3662E+01
    -13.561  0.5411E+01  0.3683E+01
    -13.557  0.5295E+01  0.3703E+01
    -13.553  0.5370E+01  0.3724E+01
    -13.549  0.5120E+01  0.3744E+01
    -13.545  0.4220E+01  0.3761E+01
    -13.541  0.2837E+01  0.3772E+01
    -13.537  0.1509E+01  0.3778E+01
    -13.533  0.6665E+00  0.3781E+01
    -13.529  0.4150E+00  0.3782E+01
    -13.526  0.7183E+00  0.3785E+01
    -13.522  0.1540E+01  0.3791E+01
    -13.518  0.2708E+01  0.3802E+01
    -13.514  0.3831E+01  0.3817E+01
    -13.510  0.4544E+01  0.3834E+01
    -13.506  0.4822E+01  0.3853E+01
    -13.502  0.4952E+01  0.3873E+01
    -13.498  0.5200E+01  0.3893E+01
    -13.494  0.5487E+01  0.3914E+01
    -13.490  0.5407E+01  0.3936E+01
    -13.486  0.4654E+01  0.3954E+01
    -13.483  0.3402E+01  0.3967E+01
    -13.479  0.2167E+01  0.3976E+01
    -13.475  0.1346E+01  0.3981E+01
    -13.471  0.9831E+00  0.3985E+01
    -13.467  0.8989E+00  0.3988E+01
    -13.463  0.8889E+00  0.3992E+01
    -13.459  0.8156E+00  0.3995E+01
    -13.455  0.6338E+00  0.3997E+01
    -13.451  0.3955E+00  0.3999E+01
    -13.447  0.1922E+00  0.4000E+01
    -13.443  0.7148E-01  0.4000E+01
    -13.440  0.2017E-01  0.4000E+01
    -13.436  0.4297E-02  0.4000E+01
    -13.432  0.6889E-03  0.4000E+01
    -13.428  0.8291E-04  0.4000E+01
    -13.424  0.7474E-05  0.4000E+01
    -13.420  0.5038E-06  0.4000E+01
    -13.416  0.2534E-07  0.4000E+01
    -13.412  0.9497E-09  0.4000E+01
    -13.408  0.2648E-10  0.4000E+01
    -13.404  0.5483E-12  0.4000E+01
    -13.400  0.8427E-14  0.4000E+01
    -13.397  0.1109E-15  0.4000E+01
    -13.393  0.0000E+00  0.4000E+01
    -13.389  0.0000E+00  0.4000E+01
    -13.385  0.0000E+00  0.4000E+01
    -13.381  0.0000E+00  0.4000E+01
    -13.377  0.0000E+00  0.4000E+01
    -13.373  0.0000E+00  0.4000E+01
    -13.369  0.0000E+00  0.4000E+01
    -13.365  0.0000E+00  0.4000E+01
    -13.361  0.0000E+00  0.4000E+01
    -13.357  0.0000E+00  0.4000E+01
    -13.353  0.0000E+00  0.4000E+01
    -13.350  0.0000E+00  0.4000E+01
    -13.346  0.0000E+00  0.4000E+01
    -13.342  0.0000E+00  0.4000E+01
    -13.338  0.0000E+00  0.4000E+01
    -13.334  0.0000E+00  0.4000E+01
    -13.330  0.0000E+00  0.4000E+01
    -13.326  0.0000E+00  0.4000E+01
    -13.322  0.0000E+00  0.4000E+01
    -13.318  0.0000E+00  0.4000E+01
    -13.314  0.0000E+00  0.4000E+01
    -13.310  0.0000E+00  0.4000E+01
    -13.307  0.0000E+00  0.4000E+01
    -13.303  0.0000E+00  0.4000E+01
    -13.299  0.0000E+00  0.4000E+01
    -13.295  0.0000E+00  0.4000E+01
    -13.291  0.0000E+00  0.4000E+01
    -13.287  0.0000E+00  0.4000E+01
    -13.283  0.0000E+00  0.4000E+01
    -13.279  0.0000E+00  0.4000E+01
    -13.275  0.0000E+00  0.4000E+01
    -13.271  0.0000E+00  0.4000E+01
    -13.267  0.0000E+00  0.4000E+01
    -13.264  0.0000E+00  0.4000E+01
    -13.260  0.0000E+00  0.4000E+01
    -13.256  0.0000E+00  0.4000E+01
    -13.252  0.0000E+00  0.4000E+01
    -13.248  0.0000E+00  0.4000E+01
    -13.244  0.0000E+00  0.4000E+01
    -13.240  0.0000E+00  0.4000E+01
    -13.236  0.0000E+00  0.4000E+01
    -13.232  0.0000E+00  0.4000E+01
    -13.228  0.0000E+00  0.4000E+01
    -13.224  0.0000E+00  0.4000E+01
    -13.220  0.0000E+00  0.4000E+01
    -13.217  0.0000E+00  0.4000E+01
    -13.213  0.0000E+00  0.4000E+01
    -13.209  0.0000E+00  0.4000E+01
    -13.205  0.0000E+00  0.4000E+01
    -13.201  0.0000E+00  0.4000E+01
    -13.197  0.0000E+00  0.4000E+01
    -13.193  0.0000E+00  0.4000E+01
    -13.189  0.0000E+00  0.4000E+01
    -13.185  0.0000E+00  0.4000E+01
    -13.181  0.0000E+00  0.4000E+01
    -13.177  0.0000E+00  0.4000E+01
    -13.174  0.0000E+00  0.4000E+01
    -13.170  0.0000E+00  0.4000E+01