       N       E                     dE             d eps       ncg     rms          rms(c)
DAV:   1    -0.120730277438E+03   -0.12073E+03   -0.33633E-02 37488   0.892E-01    0.289E-01
DAV:   2    -0.120728414019E+03    0.18634E-02   -0.14633E-03 42960   0.288E-01    0.117E-01
DAV:   3    -0.120728417842E+03   -0.38232E-05   -0.19927E-03 37968   0.199E-01    0.229E-02
DAV:   4    -0.120728469649E+03   -0.51807E-04   -0.11253E-04 41736   0.544E-02    0.215E-02
DAV:   5    -0.120728458002E+03    0.11647E-04   -0.17297E-05 37392   0.268E-02    0.816E-03
DAV:   6    -0.120728459861E+03   -0.18590E-05   -0.91360E-06 30000   0.141E-02
   1 F= -.12072846E+03 E0= -.12072846E+03  d E =-.307452E-12
