 vasp.6.3.2 27Jun22 (build Jan 18 2024 14:18:24) complex                         
 executed on    LinuxNV_CrayMPICH date 2024.05.26  19:48:27
 running on   24 total cores
 distrk:  each k-point on   24 cores,    1 groups
 distr:  one band on NCORE=   1 cores,   24 groups


--------------------------------------------------------------------------------------------------------


 INCAR:
   SYSTEM = Be4P3Rb
   ENCUT = 400
   PREC = Accurate
   ISTART = 1
   ICHARG = 0
   LCHARG = .TRUE.
   LWAVE = .TRUE.
   NEDOS = 10001
   LHFCALC = .TRUE.
   HFSCREEN = 0.2
   AEXX = 0.25
   ALGO = Normal
   GGA = PE
   ISIF = 3
   NSW = 0
   IBRION = 2
   EDIFFG = -1.0E-2
   NELM = 90
   EDIFF = 1E-5
   ISMEAR = 0
   SIGMA = 0.01
   LREAL = .FALSE.

 POTCAR:    PAW_PBE Be 06Sep2000                  
 POTCAR:    PAW_PBE B 06Sep2000                   
 POTCAR:    PAW_PBE N 08Apr2002                   
 -----------------------------------------------------------------------------
|                                                                             |
|           W    W    AA    RRRRR   N    N  II  N    N   GGGG   !!!           |
|           W    W   A  A   R    R  NN   N  II  NN   N  G    G  !!!           |
|           W    W  A    A  R    R  N N  N  II  N N  N  G       !!!           |
|           W WW W  AAAAAA  RRRRR   N  N N  II  N  N N  G  GGG   !            |
|           WW  WW  A    A  R   R   N   NN  II  N   NN  G    G                |
|           W    W  A    A  R    R  N    N  II  N    N   GGGG   !!!           |
|                                                                             |
|     For optimal performance we recommend to set                             |
|       NCORE = 2 up to number-of-cores-per-socket                            |
|     NCORE specifies how many cores store one orbital (NPAR=cpu/NCORE).      |
|     This setting can greatly improve the performance of VASP for DFT.       |
|     The default, NCORE=1 might be grossly inefficient on modern             |
|     multi-core architectures or massively parallel machines. Do your        |
|     own testing! More info at https://www.vasp.at/wiki/index.php/NCORE      |
|     Unfortunately you need to use the default for GW and RPA                |
|     calculations (for HF NCORE is supported but not extensively tested      |
|     yet).                                                                   |
|                                                                             |
 -----------------------------------------------------------------------------

 POTCAR:    PAW_PBE Be 06Sep2000                  
   SHA256 =  98a2d1e63100a984719ed1fa4aa623d62d7fd86152f07ada9bb3796889d1bbc8 Be/POTCAR             
   COPYR  = (c) Copyright 06Sep2000 Georg Kresse                                                    
   COPYR  = This file is part of the software VASP. Any use, copying, and all other rights are regul
   COPYR  = If you do not have a valid VASP license, you may not use, copy or distribute this file. 
   VRHFIN =Be: s2p0                                                                                 
   LEXCH  = PE                                                                                      
   EATOM  =    27.4793 eV,    2.0197 Ry                                                             
                                                                                                    
   TITEL  = PAW_PBE Be 06Sep2000                                                                    
   LULTRA =        F    use ultrasoft PP ?                                                          
   IUNSCR =        1    unscreen: 0-lin 1-nonlin 2-no                                               
   RPACOR =    1.580    partial core radius                                                         
   POMASS =    9.013; ZVAL   =    2.000    mass and valenz                                          
   RCORE  =    1.900    outmost cutoff radius                                                       
   RWIGS  =    1.880; RWIGS  =    0.995    wigner-seitz radius (au A)                               
   ENMAX  =  247.543; ENMIN  =  185.658 eV                                                          
   ICORE  =        2    local potential                                                             
   LCOR   =        T    correct aug charges                                                         
   LPAW   =        T    paw PP                                                                      
   EAUG   =  318.781                                                                                
   DEXC   =    0.000                                                                                
   RMAX   =    1.944    core radius for proj-oper                                                   
   RAUG   =    1.300    factor for augmentation sphere                                              
   RDEP   =    2.003    radius for radial grids                                                     
   RDEPT  =    1.802    core radius for aug-charge                                                  
                                                                                                    
   Atomic configuration                                                                             
    4 entries                                                                                       
     n  l   j            E        occ.                                                              
     1  0  0.50      -106.2287   2.0000                                                             
     2  0  0.50        -5.6162   1.9900                                                             
     2  1  0.50        -2.0244   0.0100                                                             
     3  2  1.50        -1.3606   0.0000                                                             
   Description                                                                                      
     l       E           TYP  RCUT    TYP  RCUT                                                     
     0     -5.6161739     23  1.900                                                                 
     0     27.2116520     23  1.900                                                                 
     1     -2.0243505     23  1.900                                                                 
     1     27.2116520     23  1.900                                                                 
     2     -1.3605826     15  1.500                                                                 
  local pseudopotential read in
  partial core-charges read in
  partial kinetic energy density read in
  atomic valenz-charges read in
  non local Contribution for L=            0  read in
    real space projection operators read in
  non local Contribution for L=            0  read in
    real space projection operators read in
  non local Contribution for L=            1  read in
    real space projection operators read in
  non local Contribution for L=            1  read in
    real space projection operators read in
    PAW grid and wavefunctions read in
 
   number of l-projection  operators is LMAX  =            4
   number of lm-projection operators is LMMAX =            8
 
 POTCAR:    PAW_PBE B 06Sep2000                   
   SHA256 =  a32ced30f5ae56fd4d10b4325ff17eb3e4e38ee0f4288bc219fb012fddfa6e97 B/POTCAR              
   COPYR  = (c) Copyright 06Sep2000 Georg Kresse                                                    
   COPYR  = This file is part of the software VASP. Any use, copying, and all other rights are regul
   COPYR  = If you do not have a valid VASP license, you may not use, copy or distribute this file. 
   VRHFIN =B: s2p1                                                                                  
   LEXCH  = PE                                                                                      
   EATOM  =    71.1703 eV,    5.2309 Ry                                                             
                                                                                                    
   TITEL  = PAW_PBE B 06Sep2000                                                                     
   LULTRA =        F    use ultrasoft PP ?                                                          
   IUNSCR =        1    unscreen: 0-lin 1-nonlin 2-no                                               
   RPACOR =    1.200    partial core radius                                                         
   POMASS =   10.811; ZVAL   =    3.000    mass and valenz                                          
   RCORE  =    1.700    outmost cutoff radius                                                       
   RWIGS  =    1.710; RWIGS  =    0.905    wigner-seitz radius (au A)                               
   ENMAX  =  318.614; ENMIN  =  238.960 eV                                                          
   ICORE  =        2    local potential                                                             
   LCOR   =        T    correct aug charges                                                         
   LPAW   =        T    paw PP                                                                      
   EAUG   =  535.514                                                                                
   DEXC   =    0.000                                                                                
   RMAX   =    1.732    core radius for proj-oper                                                   
   RAUG   =    1.300    factor for augmentation sphere                                              
   RDEP   =    1.757    radius for radial grids                                                     
   RDEPT  =    1.436    core radius for aug-charge                                                  
                                                                                                    
   Atomic configuration                                                                             
    4 entries                                                                                       
     n  l   j            E        occ.                                                              
     1  0  0.50      -180.5896   2.0000                                                             
     2  0  0.50        -9.4431   2.0000                                                             
     2  1  0.50        -3.6068   1.0000                                                             
     3  2  1.50        -4.0817   0.0000                                                             
   Description                                                                                      
     l       E           TYP  RCUT    TYP  RCUT                                                     
     0     -9.4430752     23  1.500                                                                 
     0      0.8675899     23  1.500                                                                 
     1     -3.6067955     23  1.700                                                                 
     1      6.1086146     23  1.700                                                                 
     2     -4.0817478      7  1.700                                                                 
  local pseudopotential read in
  partial core-charges read in
  partial kinetic energy density read in
  atomic valenz-charges read in
  non local Contribution for L=            0  read in
    real space projection operators read in
  non local Contribution for L=            0  read in
    real space projection operators read in
  non local Contribution for L=            1  read in
    real space projection operators read in
  non local Contribution for L=            1  read in
    real space projection operators read in
    PAW grid and wavefunctions read in
 
   number of l-projection  operators is LMAX  =            4
   number of lm-projection operators is LMMAX =            8
 
 POTCAR:    PAW_PBE N 08Apr2002                   
   SHA256 =  e053789ff3a61a86a1b75d8a110fcc91f86041011e7b0817c7c99e4e8a6349d7 N/POTCAR              
   COPYR  = (c) Copyright 08Apr2002 Georg Kresse                                                    
   COPYR  = This file is part of the software VASP. Any use, copying, and all other rights are regul
   COPYR  = If you do not have a valid VASP license, you may not use, copy or distribute this file. 
   VRHFIN =N: s2p3                                                                                  
   LEXCH  = PE                                                                                      
   EATOM  =   264.5486 eV,   19.4438 Ry                                                             
                                                                                                    
   TITEL  = PAW_PBE N 08Apr2002                                                                     
   LULTRA =        F    use ultrasoft PP ?                                                          
   IUNSCR =        1    unscreen: 0-lin 1-nonlin 2-no                                               
   RPACOR =    1.200    partial core radius                                                         
   POMASS =   14.001; ZVAL   =    5.000    mass and valenz                                          
   RCORE  =    1.500    outmost cutoff radius                                                       
   RWIGS  =    1.400; RWIGS  =    0.741    wigner-seitz radius (au A)                               
   ENMAX  =  400.000; ENMIN  =  300.000 eV                                                          
   ICORE  =        2    local potential                                                             
   LCOR   =        T    correct aug charges                                                         
   LPAW   =        T    paw PP                                                                      
   EAUG   =  627.112                                                                                
   DEXC   =    0.000                                                                                
   RMAX   =    1.529    core radius for proj-oper                                                   
   RAUG   =    1.300    factor for augmentation sphere                                              
   RDEP   =    1.514    radius for radial grids                                                     
   RDEPT  =    1.338    core radius for aug-charge                                                  
                                                                                                    
   Atomic configuration                                                                             
    4 entries                                                                                       
     n  l   j            E        occ.                                                              
     1  0  0.50      -384.7179   2.0000                                                             
     2  0  0.50       -18.5828   2.0000                                                             
     2  1  0.50        -7.0898   3.0000                                                             
     3  2  1.50        -6.8029   0.0000                                                             
   Description                                                                                      
     l       E           TYP  RCUT    TYP  RCUT                                                     
     0    -18.5828119     23  1.200                                                                 
     0    -13.5018863     23  1.200                                                                 
     1     -7.0897853     23  1.500                                                                 
     1      9.5240782     23  1.500                                                                 
     2     -6.8029130      7  1.500                                                                 
  local pseudopotential read in
  partial core-charges read in
  partial kinetic energy density read in
  atomic valenz-charges read in
  non local Contribution for L=            0  read in
    real space projection operators read in
  non local Contribution for L=            0  read in
    real space projection operators read in
  non local Contribution for L=            1  read in
    real space projection operators read in
  non local Contribution for L=            1  read in
    real space projection operators read in
    PAW grid and wavefunctions read in
 
   number of l-projection  operators is LMAX  =            4
   number of lm-projection operators is LMMAX =            8
 
  PAW_PBE Be 06Sep2000                  :
 energy of atom  1       EATOM=  -27.4793
 kinetic energy error for atom=    0.0002 (will be added to EATOM!!)
  PAW_PBE B 06Sep2000                   :
 energy of atom  2       EATOM=  -71.1703
 kinetic energy error for atom=    0.0020 (will be added to EATOM!!)
  PAW_PBE N 08Apr2002                   :
 energy of atom  3       EATOM= -264.5486
 kinetic energy error for atom=    0.0736 (will be added to EATOM!!)
 
 
 POSCAR: B12BeN2.cif
  positions in direct lattice
  velocities in cartesian coordinates
 exchange correlation table for  LEXCH =        8
   RHO(1)=    0.500       N(1)  =     2000
   RHO(2)=  100.500       N(2)  =     4000
 


--------------------------------------------------------------------------------------------------------


 ion  position               nearest neighbor table
   1  0.500  0.500  0.500-  14 1.54  15 1.54
   2  0.669  0.003  0.003-  13 1.73   7 1.79   3 1.79  11 1.80   5 1.81   9 1.81
   3  0.997  0.331  0.003-  12 1.73   7 1.79   2 1.79  10 1.80   4 1.81   9 1.81
   4  0.324  0.197  0.197-  14 1.53  10 1.74   6 1.74  13 1.80   3 1.81   7 1.81
   5  0.803  0.676  0.197-  14 1.53  11 1.74   6 1.74  12 1.80   7 1.81   2 1.81
   6  0.197  0.803  0.324-  15 1.53   4 1.74   5 1.74   7 1.80  12 1.81  13 1.81
   7  0.997  0.003  0.331-   8 1.73   3 1.79   2 1.79   6 1.80   5 1.81   4 1.81
   8  0.003  0.997  0.669-   7 1.73  13 1.79  12 1.79   9 1.80  11 1.81  10 1.81
   9  0.803  0.197  0.676-  14 1.53  10 1.74  11 1.74   8 1.80   2 1.81   3 1.81
  10  0.197  0.324  0.803-  15 1.53   4 1.74   9 1.74   3 1.80  13 1.81   8 1.81
  11  0.676  0.803  0.803-  15 1.53   5 1.74   9 1.74   2 1.80   8 1.81  12 1.81
  12  0.003  0.669  0.997-   3 1.73   8 1.79  13 1.79   5 1.80  11 1.81   6 1.81
  13  0.331  0.997  0.997-   2 1.73   8 1.79  12 1.79   4 1.80  10 1.81   6 1.81
  14  0.623  0.377  0.377-   9 1.53   5 1.53   4 1.53   1 1.54
  15  0.377  0.623  0.623-   6 1.53  11 1.53  10 1.53   1 1.54
 
  LATTYP: Found a trigonal (rhomboedric) cell.
 ALAT       =     5.2112899275
 COS(alpha) =     0.4521624842
  
  Lattice vectors:
  
 A1 = (  -5.2112894376,   0.0018319752,   0.0013229265)
 A2 = (  -2.3547171185,   1.4474337186,   4.4178871299)
 A3 = (  -2.3547214094,   4.6489598882,   0.0013229265)


Analysis of symmetry for initial positions (statically):
=====================================================================
 Subroutine PRICEL returns:
 Original cell was already a primitive cell.
 

 Routine SETGRP: Setting up the symmetry group for a 
 trigonal (rhombohedral) supercell.


 Subroutine GETGRP returns: Found 12 space group operations
 (whereof 12 operations were pure point group operations)
 out of a pool of 12 trial point group operations.


The static configuration has the point symmetry D_3d.


Analysis of symmetry for dynamics (positions and initial velocities):
=====================================================================
 Subroutine PRICEL returns:
 Original cell was already a primitive cell.
 

 Routine SETGRP: Setting up the symmetry group for a 
 trigonal (rhombohedral) supercell.


 Subroutine GETGRP returns: Found 12 space group operations
 (whereof 12 operations were pure point group operations)
 out of a pool of 12 trial point group operations.


The dynamic configuration has the point symmetry D_3d.


 Subroutine INISYM returns: Found 12 space group operations
 (whereof 12 operations are pure point group operations),
 and found     1 'primitive' translations


----------------------------------------------------------------------------------------

                                     Primitive cell                                     

  volume of cell :     106.9935

  direct lattice vectors                    reciprocal lattice vectors
     5.211289438 -0.001831975 -0.001322927     0.191943144  0.097200111  0.070459267
    -2.354721409  4.648959888  0.001322927     0.000057748  0.215151177 -0.070459267
    -2.354717119  1.447433719  4.417887130     0.000057460 -0.000035320  0.226394744

  length of vectors
     5.211289927  5.211289927  5.211284273     0.226394657  0.226394657  0.226394754

  position of ions in fractional coordinates (direct lattice)
     0.499999938  0.499999938  0.500000000
     0.669343160  0.003255530  0.003255088
     0.996745697  0.330658076  0.003255352
     0.323960958  0.197328566  0.197327311
     0.802673069  0.676040595  0.197327434
     0.197328166  0.802673479  0.323960872
     0.996745119  0.003256033  0.330657275
     0.003256033  0.996745119  0.669342725
     0.802673479  0.197328166  0.676039128
     0.197328566  0.323960958  0.802672689
     0.676040595  0.802673069  0.802672566
     0.003255530  0.669343160  0.996744912
     0.330658076  0.996745697  0.996744648
     0.623427178  0.376574435  0.376575646
     0.376574435  0.623427178  0.623424354

  ion indices of the primitive-cell ions
   primitive index   ion index
                 1           1
                 2           2
                 3           3
                 4           4
                 5           5
                 6           6
                 7           7
                 8           8
                 9           9
                10          10
                11          11
                12          12
                13          13
                14          14
                15          15

----------------------------------------------------------------------------------------

 
 
 KPOINTS: Automatically generated mesh            

Read explicit list of k-points.

 Found    302 k-points:

 Following reciprocal coordinates:
            Coordinates               Weight
  0.000000  0.000000  0.000000      0.001953
  0.125000  0.000000  0.000000      0.011719
  0.250000  0.000000  0.000000      0.011719
  0.375000  0.000000  0.000000      0.011719
  0.500000  0.000000  0.000000      0.005859
  0.125000  0.125000  0.000000      0.011719
  0.250000  0.125000  0.000000      0.023438
  0.375000  0.125000  0.000000      0.023438
  0.500000  0.125000  0.000000      0.023438
 -0.375000  0.125000  0.000000      0.023438
 -0.250000  0.125000  0.000000      0.023438
 -0.125000  0.125000  0.000000      0.011719
  0.250000  0.250000  0.000000      0.011719
  0.375000  0.250000  0.000000      0.023438
  0.500000  0.250000  0.000000      0.023438
 -0.375000  0.250000  0.000000      0.023438
 -0.250000  0.250000  0.000000      0.011719
  0.375000  0.375000  0.000000      0.011719
  0.500000  0.375000  0.000000      0.023438
 -0.375000  0.375000  0.000000      0.011719
  0.500000  0.500000  0.000000      0.005859
  0.125000  0.125000  0.125000      0.011719
  0.250000  0.125000  0.125000      0.011719
  0.375000  0.125000  0.125000      0.011719
  0.500000  0.125000  0.125000      0.011719
 -0.375000  0.125000  0.125000      0.011719
 -0.250000  0.125000  0.125000      0.011719
 -0.125000  0.125000  0.125000      0.003906
  0.125000  0.250000  0.125000      0.023438
  0.250000  0.250000  0.125000      0.023438
  0.375000  0.250000  0.125000      0.023438
  0.500000  0.250000  0.125000      0.023438
 -0.375000  0.250000  0.125000      0.023438
 -0.250000  0.250000  0.125000      0.011719
  0.125000  0.375000  0.125000      0.023438
  0.250000  0.375000  0.125000      0.023438
  0.375000  0.375000  0.125000      0.023438
  0.500000  0.375000  0.125000      0.023438
 -0.375000  0.375000  0.125000      0.011719
  0.125000  0.500000  0.125000      0.011719
  0.250000  0.500000  0.125000      0.023438
  0.375000  0.500000  0.125000      0.023438
  0.500000  0.500000  0.125000      0.011719
  0.250000 -0.375000  0.125000      0.023438
  0.375000 -0.375000  0.125000      0.011719
  0.250000 -0.250000  0.125000      0.011719
  0.250000  0.250000  0.250000      0.011719
  0.375000  0.250000  0.250000      0.011719
  0.500000  0.250000  0.250000      0.011719
 -0.375000  0.250000  0.250000      0.011719
 -0.250000  0.250000  0.250000      0.003906
  0.250000  0.375000  0.250000      0.023438
  0.375000  0.375000  0.250000      0.023438
  0.500000  0.375000  0.250000      0.023438
 -0.375000  0.375000  0.250000      0.011719
  0.250000  0.500000  0.250000      0.011719
  0.375000  0.500000  0.250000      0.023438
  0.500000  0.500000  0.250000      0.011719
  0.375000 -0.375000  0.250000      0.011719
  0.375000  0.375000  0.375000      0.011719
  0.500000  0.375000  0.375000      0.011719
 -0.375000  0.375000  0.375000      0.003906
  0.375000  0.500000  0.375000      0.011719
  0.500000  0.500000  0.375000      0.011719
  0.500000  0.500000  0.500000      0.001953
  0.000000  0.000000  0.000000      0.000000
  0.011214  0.011214  0.000000      0.000000
  0.022428  0.022428  0.000000      0.000000
  0.033642  0.033642  0.000000      0.000000
  0.044856  0.044856  0.000000      0.000000
  0.056071  0.056071  0.000000      0.000000
  0.067285  0.067285  0.000000      0.000000
  0.078499  0.078499  0.000000      0.000000
  0.089713  0.089713  0.000000      0.000000
  0.100927  0.100927  0.000000      0.000000
  0.112141  0.112141  0.000000      0.000000
  0.123355  0.123355  0.000000      0.000000
  0.134569  0.134569  0.000000      0.000000
  0.145783  0.145783  0.000000      0.000000
  0.156998  0.156998  0.000000      0.000000
  0.168212  0.168212  0.000000      0.000000
  0.179426  0.179426  0.000000      0.000000
  0.190640  0.190640  0.000000      0.000000
  0.201854  0.201854  0.000000      0.000000
  0.213068  0.213068  0.000000      0.000000
  0.224282  0.224282  0.000000      0.000000
  0.235496  0.235496  0.000000      0.000000
  0.246710  0.246710  0.000000      0.000000
  0.257924  0.257924  0.000000      0.000000
  0.269139  0.269139  0.000000      0.000000
  0.280353  0.280353  0.000000      0.000000
  0.291567  0.291567  0.000000      0.000000
  0.302781  0.302781  0.000000      0.000000
  0.313995  0.313995  0.000000      0.000000
  0.325209  0.325209  0.000000      0.000000
  0.336423  0.336423  0.000000      0.000000
  0.347637  0.347637  0.000000      0.000000
  0.358851  0.358851  0.000000      0.000000
  0.370066  0.370066  0.000000      0.000000
  0.381280  0.381280  0.000000      0.000000
 -0.381280  0.618720  0.000000      0.000000
 -0.394471  0.605529  0.000000      0.000000
 -0.407662  0.592338  0.000000      0.000000
 -0.420853  0.579147  0.000000      0.000000
 -0.434044  0.565956  0.000000      0.000000
 -0.447235  0.552765  0.000000      0.000000
 -0.460427  0.539573  0.000000      0.000000
 -0.473618  0.526382  0.000000      0.000000
 -0.486809  0.513191  0.000000      0.000000
 -0.500000  0.500000  0.000000      0.000000
 -0.484375  0.484375  0.000000      0.000000
 -0.468750  0.468750  0.000000      0.000000
 -0.453125  0.453125  0.000000      0.000000
 -0.437500  0.437500  0.000000      0.000000
 -0.421875  0.421875  0.000000      0.000000
 -0.406250  0.406250  0.000000      0.000000
 -0.390625  0.390625  0.000000      0.000000
 -0.375000  0.375000  0.000000      0.000000
 -0.359375  0.359375  0.000000      0.000000
 -0.343750  0.343750  0.000000      0.000000
 -0.328125  0.328125  0.000000      0.000000
 -0.312500  0.312500  0.000000      0.000000
 -0.296875  0.296875  0.000000      0.000000
 -0.281250  0.281250  0.000000      0.000000
 -0.265625  0.265625  0.000000      0.000000
 -0.250000  0.250000  0.000000      0.000000
 -0.234375  0.234375  0.000000      0.000000
 -0.218750  0.218750  0.000000      0.000000
 -0.203125  0.203125  0.000000      0.000000
 -0.187500  0.187500  0.000000      0.000000
 -0.171875  0.171875  0.000000      0.000000
 -0.156250  0.156250  0.000000      0.000000
 -0.140625  0.140625  0.000000      0.000000
 -0.125000  0.125000  0.000000      0.000000
 -0.109375  0.109375  0.000000      0.000000
 -0.093750  0.093750  0.000000      0.000000
 -0.078125  0.078125  0.000000      0.000000
 -0.062500  0.062500  0.000000      0.000000
 -0.046875  0.046875  0.000000      0.000000
 -0.031250  0.031250  0.000000      0.000000
 -0.015625  0.015625  0.000000      0.000000
  0.000000  0.000000  0.000000      0.000000
 -0.017241  0.017241  0.017241      0.000000
 -0.034483  0.034483  0.034483      0.000000
 -0.051724  0.051724  0.051724      0.000000
 -0.068966  0.068966  0.068966      0.000000
 -0.086207  0.086207  0.086207      0.000000
 -0.103448  0.103448  0.103448      0.000000
 -0.120690  0.120690  0.120690      0.000000
 -0.137931  0.137931  0.137931      0.000000
 -0.155172  0.155172  0.155172      0.000000
 -0.172414  0.172414  0.172414      0.000000
 -0.189655  0.189655  0.189655      0.000000
 -0.206897  0.206897  0.206897      0.000000
 -0.224138  0.224138  0.224138      0.000000
 -0.241379  0.241379  0.241379      0.000000
 -0.258621  0.258621  0.258621      0.000000
 -0.275862  0.275862  0.275862      0.000000
 -0.293103  0.293103  0.293103      0.000000
 -0.310345  0.310345  0.310345      0.000000
 -0.327586  0.327586  0.327586      0.000000
 -0.344828  0.344828  0.344828      0.000000
 -0.362069  0.362069  0.362069      0.000000
 -0.379310  0.379310  0.379310      0.000000
 -0.396552  0.396552  0.396552      0.000000
 -0.413793  0.413793  0.413793      0.000000
 -0.431034  0.431034  0.431034      0.000000
 -0.448276  0.448276  0.448276      0.000000
 -0.465517  0.465517  0.465517      0.000000
 -0.482759  0.482759  0.482759      0.000000
 -0.500000  0.500000  0.500000      0.000000
 -0.488128  0.511872  0.500000      0.000000
 -0.476256  0.523744  0.500000      0.000000
 -0.464384  0.535616  0.500000      0.000000
 -0.452512  0.547488  0.500000      0.000000
 -0.440640  0.559360  0.500000      0.000000
 -0.428768  0.571232  0.500000      0.000000
 -0.416896  0.583104  0.500000      0.000000
 -0.405024  0.594976  0.500000      0.000000
 -0.393152  0.606848  0.500000      0.000000
 -0.381280  0.618720  0.500000      0.000000
 -0.369408  0.630592  0.500000      0.000000
 -0.357536  0.642464  0.500000      0.000000
 -0.345664  0.654336  0.500000      0.000000
 -0.333792  0.666208  0.500000      0.000000
 -0.321920  0.678080  0.500000      0.000000
 -0.310048  0.689952  0.500000      0.000000
 -0.298176  0.701824  0.500000      0.000000
 -0.286304  0.713696  0.500000      0.000000
 -0.274432  0.725568  0.500000      0.000000
 -0.262560  0.737440  0.500000      0.000000
  0.262560  0.262560  0.500000      0.000000
  0.251144  0.251144  0.500000      0.000000
  0.239729  0.239729  0.500000      0.000000
  0.228313  0.228313  0.500000      0.000000
  0.216897  0.216897  0.500000      0.000000
  0.205482  0.205482  0.500000      0.000000
  0.194066  0.194066  0.500000      0.000000
  0.182650  0.182650  0.500000      0.000000
  0.171235  0.171235  0.500000      0.000000
  0.159819  0.159819  0.500000      0.000000
  0.148404  0.148404  0.500000      0.000000
  0.136988  0.136988  0.500000      0.000000
  0.125572  0.125572  0.500000      0.000000
  0.114157  0.114157  0.500000      0.000000
  0.102741  0.102741  0.500000      0.000000
  0.091325  0.091325  0.500000      0.000000
  0.079910  0.079910  0.500000      0.000000
  0.068494  0.068494  0.500000      0.000000
  0.057078  0.057078  0.500000      0.000000
  0.045663  0.045663  0.500000      0.000000
  0.034247  0.034247  0.500000      0.000000
  0.022831  0.022831  0.500000      0.000000
  0.011416  0.011416  0.500000      0.000000
  0.000000  0.000000  0.500000      0.000000
  0.000000  0.000000  0.481481      0.000000
  0.000000  0.000000  0.462963      0.000000
  0.000000  0.000000  0.444444      0.000000
  0.000000  0.000000  0.425926      0.000000
  0.000000  0.000000  0.407407      0.000000
  0.000000  0.000000  0.388889      0.000000
  0.000000  0.000000  0.370370      0.000000
  0.000000  0.000000  0.351852      0.000000
  0.000000  0.000000  0.333333      0.000000
  0.000000  0.000000  0.314815      0.000000
  0.000000  0.000000  0.296296      0.000000
  0.000000  0.000000  0.277778      0.000000
  0.000000  0.000000  0.259259      0.000000
  0.000000  0.000000  0.240741      0.000000
  0.000000  0.000000  0.222222      0.000000
  0.000000  0.000000  0.203704      0.000000
  0.000000  0.000000  0.185185      0.000000
  0.000000  0.000000  0.166667      0.000000
  0.000000  0.000000  0.148148      0.000000
  0.000000  0.000000  0.129630      0.000000
  0.000000  0.000000  0.111111      0.000000
  0.000000  0.000000  0.092593      0.000000
  0.000000  0.000000  0.074074      0.000000
  0.000000  0.000000  0.055556      0.000000
  0.000000  0.000000  0.037037      0.000000
  0.000000  0.000000  0.018519      0.000000
  0.000000  0.000000  0.000000      0.000000
  0.000000  0.500000  0.500000      0.000000
  0.000000  0.484375  0.484375      0.000000
  0.000000  0.468750  0.468750      0.000000
  0.000000  0.453125  0.453125      0.000000
  0.000000  0.437500  0.437500      0.000000
  0.000000  0.421875  0.421875      0.000000
  0.000000  0.406250  0.406250      0.000000
  0.000000  0.390625  0.390625      0.000000
  0.000000  0.375000  0.375000      0.000000
  0.000000  0.359375  0.359375      0.000000
  0.000000  0.343750  0.343750      0.000000
  0.000000  0.328125  0.328125      0.000000
  0.000000  0.312500  0.312500      0.000000
  0.000000  0.296875  0.296875      0.000000
  0.000000  0.281250  0.281250      0.000000
  0.000000  0.265625  0.265625      0.000000
  0.000000  0.250000  0.250000      0.000000
  0.000000  0.234375  0.234375      0.000000
  0.000000  0.218750  0.218750      0.000000
  0.000000  0.203125  0.203125      0.000000
  0.000000  0.187500  0.187500      0.000000
  0.000000  0.171875  0.171875      0.000000
  0.000000  0.156250  0.156250      0.000000
  0.000000  0.140625  0.140625      0.000000
  0.000000  0.125000  0.125000      0.000000
  0.000000  0.109375  0.109375      0.000000
  0.000000  0.093750  0.093750      0.000000
  0.000000  0.078125  0.078125      0.000000
  0.000000  0.062500  0.062500      0.000000
  0.000000  0.046875  0.046875      0.000000
  0.000000  0.031250  0.031250      0.000000
  0.000000  0.015625  0.015625      0.000000
  0.000000  0.000000  0.000000      0.000000
  0.000000  0.018519  0.000000      0.000000
  0.000000  0.037037  0.000000      0.000000
  0.000000  0.055556  0.000000      0.000000
  0.000000  0.074074  0.000000      0.000000
  0.000000  0.092593  0.000000      0.000000
  0.000000  0.111111  0.000000      0.000000
  0.000000  0.129630  0.000000      0.000000
  0.000000  0.148148  0.000000      0.000000
  0.000000  0.166667  0.000000      0.000000
  0.000000  0.185185  0.000000      0.000000
  0.000000  0.203704  0.000000      0.000000
  0.000000  0.222222  0.000000      0.000000
  0.000000  0.240741  0.000000      0.000000
  0.000000  0.259259  0.000000      0.000000
  0.000000  0.277778  0.000000      0.000000
  0.000000  0.296296  0.000000      0.000000
  0.000000  0.314815  0.000000      0.000000
  0.000000  0.333333  0.000000      0.000000
  0.000000  0.351852  0.000000      0.000000
  0.000000  0.370370  0.000000      0.000000
  0.000000  0.388889  0.000000      0.000000
  0.000000  0.407407  0.000000      0.000000
  0.000000  0.425926  0.000000      0.000000
  0.000000  0.444444  0.000000      0.000000
  0.000000  0.462963  0.000000      0.000000
  0.000000  0.481481  0.000000      0.000000
  0.000000  0.500000  0.000000      0.000000

 Following cartesian coordinates:
            Coordinates               Weight
  0.000000  0.000000  0.000000      0.001953
  0.023993  0.012150  0.008807      0.011719
  0.047986  0.024300  0.017615      0.011719
  0.071979  0.036450  0.026422      0.011719
  0.095972  0.048600  0.035230      0.005859
  0.024000  0.039044  0.000000      0.011719
  0.047993  0.051194  0.008807      0.023438
  0.071986  0.063344  0.017615      0.023438
  0.095979  0.075494  0.026422      0.023438
 -0.071971 -0.009556 -0.035230      0.023438
 -0.047979  0.002594 -0.026422      0.023438
 -0.023986  0.014744 -0.017615      0.011719
  0.048000  0.078088  0.000000      0.011719
  0.071993  0.090238  0.008807      0.023438
  0.095986  0.102388  0.017615      0.023438
 -0.071964  0.017338 -0.044037      0.023438
 -0.047971  0.029488 -0.035230      0.011719
  0.072000  0.117132  0.000000      0.011719
  0.095993  0.129282  0.008807      0.023438
 -0.071957  0.044232 -0.052844      0.011719
  0.096000  0.156176  0.000000      0.005859
  0.024007  0.039039  0.028299      0.011719
  0.048000  0.051190  0.037107      0.011719
  0.071993  0.063340  0.045914      0.011719
  0.095986  0.075490  0.054722      0.011719
 -0.071964 -0.009561 -0.006930      0.011719
 -0.047971  0.002589  0.001877      0.011719
 -0.023978  0.014739  0.010685      0.003906
  0.024015  0.065933  0.019492      0.023438
  0.048007  0.078083  0.028299      0.023438
  0.072000  0.090233  0.037107      0.023438
  0.095993  0.102383  0.045914      0.023438
 -0.071957  0.017333 -0.015738      0.023438
 -0.047964  0.029483 -0.006930      0.011719
  0.024022  0.092827  0.010685      0.023438
  0.048015  0.104977  0.019492      0.023438
  0.072008  0.117127  0.028299      0.023438
  0.096000  0.129277  0.037107      0.023438
 -0.071950  0.044227 -0.024545      0.011719
  0.024029  0.119721  0.001877      0.011719
  0.048022  0.131871  0.010685      0.023438
  0.072015  0.144021  0.019492      0.023438
  0.096008  0.156171  0.028299      0.011719
  0.047971 -0.056386  0.072336      0.023438
  0.071964 -0.044236  0.081144      0.011719
  0.047979 -0.029492  0.063529      0.011719
  0.048015  0.078079  0.056599      0.011719
  0.072007  0.090229  0.065406      0.011719
  0.096000  0.102379  0.074214      0.011719
 -0.071950  0.017329  0.012562      0.011719
 -0.047957  0.029479  0.021369      0.003906
  0.048022  0.104973  0.047791      0.023438
  0.072015  0.117123  0.056599      0.023438
  0.096008  0.129273  0.065406      0.023438
 -0.071943  0.044223  0.003754      0.011719
  0.048029  0.131867  0.038984      0.011719
  0.072022  0.144017  0.047791      0.023438
  0.096015  0.156167  0.056599      0.011719
  0.071971 -0.044240  0.109443      0.011719
  0.072022  0.117118  0.084898      0.011719
  0.096015  0.129269  0.093705      0.011719
 -0.071935  0.044218  0.032054      0.003906
  0.072029  0.144012  0.076091      0.011719
  0.096022  0.156162  0.084898      0.011719
  0.096029  0.156158  0.113197      0.001953
  0.000000  0.000000  0.000000      0.000000
  0.002153  0.003503  0.000000      0.000000
  0.004306  0.007005  0.000000      0.000000
  0.006459  0.010508  0.000000      0.000000
  0.008612  0.014011  0.000000      0.000000
  0.010766  0.017514  0.000000      0.000000
  0.012919  0.021016  0.000000      0.000000
  0.015072  0.024519  0.000000      0.000000
  0.017225  0.028022  0.000000      0.000000
  0.019378  0.031525  0.000000      0.000000
  0.021531  0.035027  0.000000      0.000000
  0.023684  0.038530  0.000000      0.000000
  0.025837  0.042033  0.000000      0.000000
  0.027991  0.045536  0.000000      0.000000
  0.030144  0.049038  0.000000      0.000000
  0.032297  0.052541  0.000000      0.000000
  0.034450  0.056044  0.000000      0.000000
  0.036603  0.059547  0.000000      0.000000
  0.038756  0.063049  0.000000      0.000000
  0.040909  0.066552  0.000000      0.000000
  0.043062  0.070055  0.000000      0.000000
  0.045215  0.073558  0.000000      0.000000
  0.047369  0.077060  0.000000      0.000000
  0.049522  0.080563  0.000000      0.000000
  0.051675  0.084066  0.000000      0.000000
  0.053828  0.087569  0.000000      0.000000
  0.055981  0.091071  0.000000      0.000000
  0.058134  0.094574  0.000000      0.000000
  0.060287  0.098077  0.000000      0.000000
  0.062440  0.101579  0.000000      0.000000
  0.064594  0.105082  0.000000      0.000000
  0.066747  0.108585  0.000000      0.000000
  0.068900  0.112088  0.000000      0.000000
  0.071053  0.115590  0.000000      0.000000
  0.073206  0.119093  0.000000      0.000000
 -0.073148  0.096058 -0.070459      0.000000
 -0.075681  0.091938 -0.070459      0.000000
 -0.078214  0.087817 -0.070459      0.000000
 -0.080746  0.083697 -0.070459      0.000000
 -0.083279  0.079577 -0.070459      0.000000
 -0.085812  0.075457 -0.070459      0.000000
 -0.088345  0.071336 -0.070459      0.000000
 -0.090877  0.067216 -0.070459      0.000000
 -0.093410  0.063096 -0.070459      0.000000
 -0.095943  0.058976 -0.070459      0.000000
 -0.092944  0.057133 -0.068257      0.000000
 -0.089946  0.055290 -0.066056      0.000000
 -0.086948  0.053447 -0.063854      0.000000
 -0.083950  0.051604 -0.061652      0.000000
 -0.080952  0.049761 -0.059450      0.000000
 -0.077953  0.047918 -0.057248      0.000000
 -0.074955  0.046075 -0.055046      0.000000
 -0.071957  0.044232 -0.052844      0.000000
 -0.068959  0.042389 -0.050643      0.000000
 -0.065961  0.040546 -0.048441      0.000000
 -0.062962  0.038703 -0.046239      0.000000
 -0.059964  0.036860 -0.044037      0.000000
 -0.056966  0.035017 -0.041835      0.000000
 -0.053968  0.033174 -0.039633      0.000000
 -0.050970  0.031331 -0.037431      0.000000
 -0.047971  0.029488 -0.035230      0.000000
 -0.044973  0.027645 -0.033028      0.000000
 -0.041975  0.025802 -0.030826      0.000000
 -0.038977  0.023959 -0.028624      0.000000
 -0.035979  0.022116 -0.026422      0.000000
 -0.032980  0.020273 -0.024220      0.000000
 -0.029982  0.018430 -0.022019      0.000000
 -0.026984  0.016587 -0.019817      0.000000
 -0.023986  0.014744 -0.017615      0.000000
 -0.020987  0.012901 -0.015413      0.000000
 -0.017989  0.011058 -0.013211      0.000000
 -0.014991  0.009215 -0.011009      0.000000
 -0.011993  0.007372 -0.008807      0.000000
 -0.008995  0.005529 -0.006606      0.000000
 -0.005996  0.003686 -0.004404      0.000000
 -0.002998  0.001843 -0.002202      0.000000
  0.000000  0.000000  0.000000      0.000000
 -0.003307  0.002033  0.001474      0.000000
 -0.006615  0.004066  0.002947      0.000000
 -0.009922  0.006099  0.004421      0.000000
 -0.013230  0.008132  0.005895      0.000000
 -0.016537  0.010165  0.007369      0.000000
 -0.019844  0.012198  0.008842      0.000000
 -0.023152  0.014231  0.010316      0.000000
 -0.026459  0.016264  0.011790      0.000000
 -0.029766  0.018297  0.013264      0.000000
 -0.033074  0.020330  0.014737      0.000000
 -0.036381  0.022363  0.016211      0.000000
 -0.039689  0.024396  0.017685      0.000000
 -0.042996  0.026429  0.019158      0.000000
 -0.046303  0.028462  0.020632      0.000000
 -0.049611  0.030495  0.022106      0.000000
 -0.052918  0.032528  0.023580      0.000000
 -0.056225  0.034562  0.025053      0.000000
 -0.059533  0.036595  0.026527      0.000000
 -0.062840  0.038628  0.028001      0.000000
 -0.066148  0.040661  0.029475      0.000000
 -0.069455  0.042694  0.030948      0.000000
 -0.072762  0.044727  0.032422      0.000000
 -0.076070  0.046760  0.033896      0.000000
 -0.079377  0.048793  0.035369      0.000000
 -0.082684  0.050826  0.036843      0.000000
 -0.085992  0.052859  0.038317      0.000000
 -0.089299  0.054892  0.039791      0.000000
 -0.092607  0.056925  0.041264      0.000000
 -0.095914  0.058958  0.042738      0.000000
 -0.093635  0.062666  0.042738      0.000000
 -0.091355  0.066374  0.042738      0.000000
 -0.089076  0.070083  0.042738      0.000000
 -0.086796  0.073791  0.042738      0.000000
 -0.084517  0.077499  0.042738      0.000000
 -0.082237  0.081207  0.042738      0.000000
 -0.079958  0.084916  0.042738      0.000000
 -0.077678  0.088624  0.042738      0.000000
 -0.075399  0.092332  0.042738      0.000000
 -0.073120  0.096040  0.042738      0.000000
 -0.070840  0.099748  0.042738      0.000000
 -0.068561  0.103457  0.042738      0.000000
 -0.066281  0.107165  0.042738      0.000000
 -0.064002  0.110873  0.042738      0.000000
 -0.061722  0.114581  0.042738      0.000000
 -0.059443  0.118290  0.042738      0.000000
 -0.057164  0.121998  0.042738      0.000000
 -0.054884  0.125706  0.042738      0.000000
 -0.052605  0.129414  0.042738      0.000000
 -0.050325  0.133123  0.042738      0.000000
  0.050440  0.081993  0.113197      0.000000
  0.048249  0.078428  0.113197      0.000000
  0.046057  0.074862  0.113197      0.000000
  0.043865  0.071296  0.113197      0.000000
  0.041673  0.067731  0.113197      0.000000
  0.039481  0.064165  0.113197      0.000000
  0.037290  0.060599  0.113197      0.000000
  0.035098  0.057033  0.113197      0.000000
  0.032906  0.053468  0.113197      0.000000
  0.030714  0.049902  0.113197      0.000000
  0.028522  0.046336  0.113197      0.000000
  0.026331  0.042771  0.113197      0.000000
  0.024139  0.039205  0.113197      0.000000
  0.021947  0.035639  0.113197      0.000000
  0.019755  0.032074  0.113197      0.000000
  0.017563  0.028508  0.113197      0.000000
  0.015371  0.024942  0.113197      0.000000
  0.013180  0.021377  0.113197      0.000000
  0.010988  0.017811  0.113197      0.000000
  0.008796  0.014245  0.113197      0.000000
  0.006604  0.010679  0.113197      0.000000
  0.004412  0.007114  0.113197      0.000000
  0.002221  0.003548  0.113197      0.000000
  0.000029 -0.000018  0.113197      0.000000
  0.000028 -0.000017  0.109005      0.000000
  0.000027 -0.000016  0.104812      0.000000
  0.000026 -0.000016  0.100620      0.000000
  0.000024 -0.000015  0.096427      0.000000
  0.000023 -0.000014  0.092235      0.000000
  0.000022 -0.000014  0.088042      0.000000
  0.000021 -0.000013  0.083850      0.000000
  0.000020 -0.000012  0.079657      0.000000
  0.000019 -0.000012  0.075465      0.000000
  0.000018 -0.000011  0.071272      0.000000
  0.000017 -0.000010  0.067080      0.000000
  0.000016 -0.000010  0.062887      0.000000
  0.000015 -0.000009  0.058695      0.000000
  0.000014 -0.000009  0.054502      0.000000
  0.000013 -0.000008  0.050310      0.000000
  0.000012 -0.000007  0.046117      0.000000
  0.000011 -0.000007  0.041925      0.000000
  0.000010 -0.000006  0.037732      0.000000
  0.000009 -0.000005  0.033540      0.000000
  0.000007 -0.000005  0.029347      0.000000
  0.000006 -0.000004  0.025155      0.000000
  0.000005 -0.000003  0.020962      0.000000
  0.000004 -0.000003  0.016770      0.000000
  0.000003 -0.000002  0.012577      0.000000
  0.000002 -0.000001  0.008385      0.000000
  0.000001 -0.000001  0.004192      0.000000
  0.000000  0.000000  0.000000      0.000000
  0.000058  0.107558  0.077968      0.000000
  0.000056  0.104197  0.075531      0.000000
  0.000054  0.100836  0.073095      0.000000
  0.000052  0.097474  0.070658      0.000000
  0.000050  0.094113  0.068222      0.000000
  0.000049  0.090752  0.065785      0.000000
  0.000047  0.087391  0.063349      0.000000
  0.000045  0.084030  0.060912      0.000000
  0.000043  0.080668  0.058476      0.000000
  0.000041  0.077307  0.056039      0.000000
  0.000040  0.073946  0.053603      0.000000
  0.000038  0.070585  0.051166      0.000000
  0.000036  0.067224  0.048730      0.000000
  0.000034  0.063863  0.046293      0.000000
  0.000032  0.060501  0.043857      0.000000
  0.000031  0.057140  0.041420      0.000000
  0.000029  0.053779  0.038984      0.000000
  0.000027  0.050418  0.036547      0.000000
  0.000025  0.047057  0.034111      0.000000
  0.000023  0.043695  0.031674      0.000000
  0.000022  0.040334  0.029238      0.000000
  0.000020  0.036973  0.026801      0.000000
  0.000018  0.033612  0.024365      0.000000
  0.000016  0.030251  0.021928      0.000000
  0.000014  0.026889  0.019492      0.000000
  0.000013  0.023528  0.017055      0.000000
  0.000011  0.020167  0.014619      0.000000
  0.000009  0.016806  0.012182      0.000000
  0.000007  0.013445  0.009746      0.000000
  0.000005  0.010084  0.007309      0.000000
  0.000004  0.006722  0.004873      0.000000
  0.000002  0.003361  0.002436      0.000000
  0.000000  0.000000  0.000000      0.000000
  0.000001  0.003984 -0.001305      0.000000
  0.000002  0.007969 -0.002610      0.000000
  0.000003  0.011953 -0.003914      0.000000
  0.000004  0.015937 -0.005219      0.000000
  0.000005  0.019921 -0.006524      0.000000
  0.000006  0.023906 -0.007829      0.000000
  0.000007  0.027890 -0.009134      0.000000
  0.000009  0.031874 -0.010438      0.000000
  0.000010  0.035859 -0.011743      0.000000
  0.000011  0.039843 -0.013048      0.000000
  0.000012  0.043827 -0.014353      0.000000
  0.000013  0.047811 -0.015658      0.000000
  0.000014  0.051796 -0.016962      0.000000
  0.000015  0.055780 -0.018267      0.000000
  0.000016  0.059764 -0.019572      0.000000
  0.000017  0.063748 -0.020877      0.000000
  0.000018  0.067733 -0.022182      0.000000
  0.000019  0.071717 -0.023486      0.000000
  0.000020  0.075701 -0.024791      0.000000
  0.000021  0.079686 -0.026096      0.000000
  0.000022  0.083670 -0.027401      0.000000
  0.000024  0.087654 -0.028706      0.000000
  0.000025  0.091638 -0.030010      0.000000
  0.000026  0.095623 -0.031315      0.000000
  0.000027  0.099607 -0.032620      0.000000
  0.000028  0.103591 -0.033925      0.000000
  0.000029  0.107576 -0.035230      0.000000
 
 
 Subroutine IBZKPT_HF returns following result:
 ==============================================
 
 Found    749 k-points in 1st BZ
 the following    749 k-points will be used (e.g. in the exchange kernel)
 Following reciprocal coordinates:   # in IRBZ
  0.000000  0.000000  0.000000    0.00195313   1 t-inv F
  0.125000  0.000000  0.000000    0.00195313   2 t-inv F
  0.250000  0.000000  0.000000    0.00195313   3 t-inv F
  0.375000  0.000000  0.000000    0.00195313   4 t-inv F
  0.500000  0.000000  0.000000    0.00195313   5 t-inv F
  0.125000  0.125000  0.000000    0.00195313   6 t-inv F
  0.250000  0.125000  0.000000    0.00195313   7 t-inv F
  0.375000  0.125000  0.000000    0.00195313   8 t-inv F
  0.500000  0.125000  0.000000    0.00195313   9 t-inv F
 -0.375000  0.125000  0.000000    0.00195313  10 t-inv F
 -0.250000  0.125000  0.000000    0.00195313  11 t-inv F
 -0.125000  0.125000  0.000000    0.00195313  12 t-inv F
  0.250000  0.250000  0.000000    0.00195313  13 t-inv F
  0.375000  0.250000  0.000000    0.00195313  14 t-inv F
  0.500000  0.250000  0.000000    0.00195313  15 t-inv F
 -0.375000  0.250000  0.000000    0.00195313  16 t-inv F
 -0.250000  0.250000  0.000000    0.00195313  17 t-inv F
  0.375000  0.375000  0.000000    0.00195313  18 t-inv F
  0.500000  0.375000  0.000000    0.00195313  19 t-inv F
 -0.375000  0.375000  0.000000    0.00195313  20 t-inv F
  0.500000  0.500000  0.000000    0.00195313  21 t-inv F
  0.125000  0.125000  0.125000    0.00195313  22 t-inv F
  0.250000  0.125000  0.125000    0.00195313  23 t-inv F
  0.375000  0.125000  0.125000    0.00195313  24 t-inv F
  0.500000  0.125000  0.125000    0.00195313  25 t-inv F
 -0.375000  0.125000  0.125000    0.00195313  26 t-inv F
 -0.250000  0.125000  0.125000    0.00195313  27 t-inv F
 -0.125000  0.125000  0.125000    0.00195313  28 t-inv F
  0.125000  0.250000  0.125000    0.00195313  29 t-inv F
  0.250000  0.250000  0.125000    0.00195313  30 t-inv F
  0.375000  0.250000  0.125000    0.00195313  31 t-inv F
  0.500000  0.250000  0.125000    0.00195313  32 t-inv F
 -0.375000  0.250000  0.125000    0.00195313  33 t-inv F
 -0.250000  0.250000  0.125000    0.00195313  34 t-inv F
  0.125000  0.375000  0.125000    0.00195313  35 t-inv F
  0.250000  0.375000  0.125000    0.00195313  36 t-inv F
  0.375000  0.375000  0.125000    0.00195313  37 t-inv F
  0.500000  0.375000  0.125000    0.00195313  38 t-inv F
 -0.375000  0.375000  0.125000    0.00195313  39 t-inv F
  0.125000  0.500000  0.125000    0.00195313  40 t-inv F
  0.250000  0.500000  0.125000    0.00195313  41 t-inv F
  0.375000  0.500000  0.125000    0.00195313  42 t-inv F
  0.500000  0.500000  0.125000    0.00195313  43 t-inv F
  0.250000 -0.375000  0.125000    0.00195313  44 t-inv F
  0.375000 -0.375000  0.125000    0.00195313  45 t-inv F
  0.250000 -0.250000  0.125000    0.00195313  46 t-inv F
  0.250000  0.250000  0.250000    0.00195313  47 t-inv F
  0.375000  0.250000  0.250000    0.00195313  48 t-inv F
  0.500000  0.250000  0.250000    0.00195313  49 t-inv F
 -0.375000  0.250000  0.250000    0.00195313  50 t-inv F
 -0.250000  0.250000  0.250000    0.00195313  51 t-inv F
  0.250000  0.375000  0.250000    0.00195313  52 t-inv F
  0.375000  0.375000  0.250000    0.00195313  53 t-inv F
  0.500000  0.375000  0.250000    0.00195313  54 t-inv F
 -0.375000  0.375000  0.250000    0.00195313  55 t-inv F
  0.250000  0.500000  0.250000    0.00195313  56 t-inv F
  0.375000  0.500000  0.250000    0.00195313  57 t-inv F
  0.500000  0.500000  0.250000    0.00195313  58 t-inv F
  0.375000 -0.375000  0.250000    0.00195313  59 t-inv F
  0.375000  0.375000  0.375000    0.00195313  60 t-inv F
  0.500000  0.375000  0.375000    0.00195313  61 t-inv F
 -0.375000  0.375000  0.375000    0.00195313  62 t-inv F
  0.375000  0.500000  0.375000    0.00195313  63 t-inv F
  0.500000  0.500000  0.375000    0.00195313  64 t-inv F
  0.500000  0.500000  0.500000    0.00195313  65 t-inv F
  0.000000  0.000000  0.000000    0.00000000  66 t-inv F
  0.011214  0.011214  0.000000    0.00000000  67 t-inv F
  0.022428  0.022428  0.000000    0.00000000  68 t-inv F
  0.033642  0.033642  0.000000    0.00000000  69 t-inv F
  0.044856  0.044856  0.000000    0.00000000  70 t-inv F
  0.056071  0.056071  0.000000    0.00000000  71 t-inv F
  0.067285  0.067285  0.000000    0.00000000  72 t-inv F
  0.078499  0.078499  0.000000    0.00000000  73 t-inv F
  0.089713  0.089713  0.000000    0.00000000  74 t-inv F
  0.100927  0.100927  0.000000    0.00000000  75 t-inv F
  0.112141  0.112141  0.000000    0.00000000  76 t-inv F
  0.123355  0.123355  0.000000    0.00000000  77 t-inv F
  0.134569  0.134569  0.000000    0.00000000  78 t-inv F
  0.145783  0.145783  0.000000    0.00000000  79 t-inv F
  0.156998  0.156998  0.000000    0.00000000  80 t-inv F
  0.168212  0.168212  0.000000    0.00000000  81 t-inv F
  0.179426  0.179426  0.000000    0.00000000  82 t-inv F
  0.190640  0.190640  0.000000    0.00000000  83 t-inv F
  0.201854  0.201854  0.000000    0.00000000  84 t-inv F
  0.213068  0.213068  0.000000    0.00000000  85 t-inv F
  0.224282  0.224282  0.000000    0.00000000  86 t-inv F
  0.235496  0.235496  0.000000    0.00000000  87 t-inv F
  0.246710  0.246710  0.000000    0.00000000  88 t-inv F
  0.257924  0.257924  0.000000    0.00000000  89 t-inv F
  0.269139  0.269139  0.000000    0.00000000  90 t-inv F
  0.280353  0.280353  0.000000    0.00000000  91 t-inv F
  0.291567  0.291567  0.000000    0.00000000  92 t-inv F
  0.302781  0.302781  0.000000    0.00000000  93 t-inv F
  0.313995  0.313995  0.000000    0.00000000  94 t-inv F
  0.325209  0.325209  0.000000    0.00000000  95 t-inv F
  0.336423  0.336423  0.000000    0.00000000  96 t-inv F
  0.347637  0.347637  0.000000    0.00000000  97 t-inv F
  0.358851  0.358851  0.000000    0.00000000  98 t-inv F
  0.370066  0.370066  0.000000    0.00000000  99 t-inv F
  0.381280  0.381280  0.000000    0.00000000 100 t-inv F
 -0.381280  0.618720  0.000000    0.00000000 101 t-inv F
 -0.394471  0.605529  0.000000    0.00000000 102 t-inv F
 -0.407662  0.592338  0.000000    0.00000000 103 t-inv F
 -0.420853  0.579147  0.000000    0.00000000 104 t-inv F
 -0.434044  0.565956  0.000000    0.00000000 105 t-inv F
 -0.447235  0.552765  0.000000    0.00000000 106 t-inv F
 -0.460427  0.539573  0.000000    0.00000000 107 t-inv F
 -0.473618  0.526382  0.000000    0.00000000 108 t-inv F
 -0.486809  0.513191  0.000000    0.00000000 109 t-inv F
 -0.500000  0.500000  0.000000    0.00000000 110 t-inv F
 -0.484375  0.484375  0.000000    0.00000000 111 t-inv F
 -0.468750  0.468750  0.000000    0.00000000 112 t-inv F
 -0.453125  0.453125  0.000000    0.00000000 113 t-inv F
 -0.437500  0.437500  0.000000    0.00000000 114 t-inv F
 -0.421875  0.421875  0.000000    0.00000000 115 t-inv F
 -0.406250  0.406250  0.000000    0.00000000 116 t-inv F
 -0.390625  0.390625  0.000000    0.00000000 117 t-inv F
 -0.375000  0.375000  0.000000    0.00000000 118 t-inv F
 -0.359375  0.359375  0.000000    0.00000000 119 t-inv F
 -0.343750  0.343750  0.000000    0.00000000 120 t-inv F
 -0.328125  0.328125  0.000000    0.00000000 121 t-inv F
 -0.312500  0.312500  0.000000    0.00000000 122 t-inv F
 -0.296875  0.296875  0.000000    0.00000000 123 t-inv F
 -0.281250  0.281250  0.000000    0.00000000 124 t-inv F
 -0.265625  0.265625  0.000000    0.00000000 125 t-inv F
 -0.250000  0.250000  0.000000    0.00000000 126 t-inv F
 -0.234375  0.234375  0.000000    0.00000000 127 t-inv F
 -0.218750  0.218750  0.000000    0.00000000 128 t-inv F
 -0.203125  0.203125  0.000000    0.00000000 129 t-inv F
 -0.187500  0.187500  0.000000    0.00000000 130 t-inv F
 -0.171875  0.171875  0.000000    0.00000000 131 t-inv F
 -0.156250  0.156250  0.000000    0.00000000 132 t-inv F
 -0.140625  0.140625  0.000000    0.00000000 133 t-inv F
 -0.125000  0.125000  0.000000    0.00000000 134 t-inv F
 -0.109375  0.109375  0.000000    0.00000000 135 t-inv F
 -0.093750  0.093750  0.000000    0.00000000 136 t-inv F
 -0.078125  0.078125  0.000000    0.00000000 137 t-inv F
 -0.062500  0.062500  0.000000    0.00000000 138 t-inv F
 -0.046875  0.046875  0.000000    0.00000000 139 t-inv F
 -0.031250  0.031250  0.000000    0.00000000 140 t-inv F
 -0.015625  0.015625  0.000000    0.00000000 141 t-inv F
  0.000000  0.000000  0.000000    0.00000000 142 t-inv F
 -0.017241  0.017241  0.017241    0.00000000 143 t-inv F
 -0.034483  0.034483  0.034483    0.00000000 144 t-inv F
 -0.051724  0.051724  0.051724    0.00000000 145 t-inv F
 -0.068966  0.068966  0.068966    0.00000000 146 t-inv F
 -0.086207  0.086207  0.086207    0.00000000 147 t-inv F
 -0.103448  0.103448  0.103448    0.00000000 148 t-inv F
 -0.120690  0.120690  0.120690    0.00000000 149 t-inv F
 -0.137931  0.137931  0.137931    0.00000000 150 t-inv F
 -0.155172  0.155172  0.155172    0.00000000 151 t-inv F
 -0.172414  0.172414  0.172414    0.00000000 152 t-inv F
 -0.189655  0.189655  0.189655    0.00000000 153 t-inv F
 -0.206897  0.206897  0.206897    0.00000000 154 t-inv F
 -0.224138  0.224138  0.224138    0.00000000 155 t-inv F
 -0.241379  0.241379  0.241379    0.00000000 156 t-inv F
 -0.258621  0.258621  0.258621    0.00000000 157 t-inv F
 -0.275862  0.275862  0.275862    0.00000000 158 t-inv F
 -0.293103  0.293103  0.293103    0.00000000 159 t-inv F
 -0.310345  0.310345  0.310345    0.00000000 160 t-inv F
 -0.327586  0.327586  0.327586    0.00000000 161 t-inv F
 -0.344828  0.344828  0.344828    0.00000000 162 t-inv F
 -0.362069  0.362069  0.362069    0.00000000 163 t-inv F
 -0.379310  0.379310  0.379310    0.00000000 164 t-inv F
 -0.396552  0.396552  0.396552    0.00000000 165 t-inv F
 -0.413793  0.413793  0.413793    0.00000000 166 t-inv F
 -0.431034  0.431034  0.431034    0.00000000 167 t-inv F
 -0.448276  0.448276  0.448276    0.00000000 168 t-inv F
 -0.465517  0.465517  0.465517    0.00000000 169 t-inv F
 -0.482759  0.482759  0.482759    0.00000000 170 t-inv F
 -0.500000  0.500000  0.500000    0.00000000 171 t-inv F
 -0.488128  0.511872  0.500000    0.00000000 172 t-inv F
 -0.476256  0.523744  0.500000    0.00000000 173 t-inv F
 -0.464384  0.535616  0.500000    0.00000000 174 t-inv F
 -0.452512  0.547488  0.500000    0.00000000 175 t-inv F
 -0.440640  0.559360  0.500000    0.00000000 176 t-inv F
 -0.428768  0.571232  0.500000    0.00000000 177 t-inv F
 -0.416896  0.583104  0.500000    0.00000000 178 t-inv F
 -0.405024  0.594976  0.500000    0.00000000 179 t-inv F
 -0.393152  0.606848  0.500000    0.00000000 180 t-inv F
 -0.381280  0.618720  0.500000    0.00000000 181 t-inv F
 -0.369408  0.630592  0.500000    0.00000000 182 t-inv F
 -0.357536  0.642464  0.500000    0.00000000 183 t-inv F
 -0.345664  0.654336  0.500000    0.00000000 184 t-inv F
 -0.333792  0.666208  0.500000    0.00000000 185 t-inv F
 -0.321920  0.678080  0.500000    0.00000000 186 t-inv F
 -0.310048  0.689952  0.500000    0.00000000 187 t-inv F
 -0.298176  0.701824  0.500000    0.00000000 188 t-inv F
 -0.286304  0.713696  0.500000    0.00000000 189 t-inv F
 -0.274432  0.725568  0.500000    0.00000000 190 t-inv F
 -0.262560  0.737440  0.500000    0.00000000 191 t-inv F
  0.262560  0.262560  0.500000    0.00000000 192 t-inv F
  0.251144  0.251144  0.500000    0.00000000 193 t-inv F
  0.239729  0.239729  0.500000    0.00000000 194 t-inv F
  0.228313  0.228313  0.500000    0.00000000 195 t-inv F
  0.216897  0.216897  0.500000    0.00000000 196 t-inv F
  0.205482  0.205482  0.500000    0.00000000 197 t-inv F
  0.194066  0.194066  0.500000    0.00000000 198 t-inv F
  0.182650  0.182650  0.500000    0.00000000 199 t-inv F
  0.171235  0.171235  0.500000    0.00000000 200 t-inv F
  0.159819  0.159819  0.500000    0.00000000 201 t-inv F
  0.148404  0.148404  0.500000    0.00000000 202 t-inv F
  0.136988  0.136988  0.500000    0.00000000 203 t-inv F
  0.125572  0.125572  0.500000    0.00000000 204 t-inv F
  0.114157  0.114157  0.500000    0.00000000 205 t-inv F
  0.102741  0.102741  0.500000    0.00000000 206 t-inv F
  0.091325  0.091325  0.500000    0.00000000 207 t-inv F
  0.079910  0.079910  0.500000    0.00000000 208 t-inv F
  0.068494  0.068494  0.500000    0.00000000 209 t-inv F
  0.057078  0.057078  0.500000    0.00000000 210 t-inv F
  0.045663  0.045663  0.500000    0.00000000 211 t-inv F
  0.034247  0.034247  0.500000    0.00000000 212 t-inv F
  0.022831  0.022831  0.500000    0.00000000 213 t-inv F
  0.011416  0.011416  0.500000    0.00000000 214 t-inv F
  0.000000  0.000000  0.500000    0.00000000 215 t-inv F
  0.000000  0.000000  0.481481    0.00000000 216 t-inv F
  0.000000  0.000000  0.462963    0.00000000 217 t-inv F
  0.000000  0.000000  0.444444    0.00000000 218 t-inv F
  0.000000  0.000000  0.425926    0.00000000 219 t-inv F
  0.000000  0.000000  0.407407    0.00000000 220 t-inv F
  0.000000  0.000000  0.388889    0.00000000 221 t-inv F
  0.000000  0.000000  0.370370    0.00000000 222 t-inv F
  0.000000  0.000000  0.351852    0.00000000 223 t-inv F
  0.000000  0.000000  0.333333    0.00000000 224 t-inv F
  0.000000  0.000000  0.314815    0.00000000 225 t-inv F
  0.000000  0.000000  0.296296    0.00000000 226 t-inv F
  0.000000  0.000000  0.277778    0.00000000 227 t-inv F
  0.000000  0.000000  0.259259    0.00000000 228 t-inv F
  0.000000  0.000000  0.240741    0.00000000 229 t-inv F
  0.000000  0.000000  0.222222    0.00000000 230 t-inv F
  0.000000  0.000000  0.203704    0.00000000 231 t-inv F
  0.000000  0.000000  0.185185    0.00000000 232 t-inv F
  0.000000  0.000000  0.166667    0.00000000 233 t-inv F
  0.000000  0.000000  0.148148    0.00000000 234 t-inv F
  0.000000  0.000000  0.129630    0.00000000 235 t-inv F
  0.000000  0.000000  0.111111    0.00000000 236 t-inv F
  0.000000  0.000000  0.092593    0.00000000 237 t-inv F
  0.000000  0.000000  0.074074    0.00000000 238 t-inv F
  0.000000  0.000000  0.055556    0.00000000 239 t-inv F
  0.000000  0.000000  0.037037    0.00000000 240 t-inv F
  0.000000  0.000000  0.018519    0.00000000 241 t-inv F
  0.000000  0.000000  0.000000    0.00000000 242 t-inv F
  0.000000  0.500000  0.500000    0.00000000 243 t-inv F
  0.000000  0.484375  0.484375    0.00000000 244 t-inv F
  0.000000  0.468750  0.468750    0.00000000 245 t-inv F
  0.000000  0.453125  0.453125    0.00000000 246 t-inv F
  0.000000  0.437500  0.437500    0.00000000 247 t-inv F
  0.000000  0.421875  0.421875    0.00000000 248 t-inv F
  0.000000  0.406250  0.406250    0.00000000 249 t-inv F
  0.000000  0.390625  0.390625    0.00000000 250 t-inv F
  0.000000  0.375000  0.375000    0.00000000 251 t-inv F
  0.000000  0.359375  0.359375    0.00000000 252 t-inv F
  0.000000  0.343750  0.343750    0.00000000 253 t-inv F
  0.000000  0.328125  0.328125    0.00000000 254 t-inv F
  0.000000  0.312500  0.312500    0.00000000 255 t-inv F
  0.000000  0.296875  0.296875    0.00000000 256 t-inv F
  0.000000  0.281250  0.281250    0.00000000 257 t-inv F
  0.000000  0.265625  0.265625    0.00000000 258 t-inv F
  0.000000  0.250000  0.250000    0.00000000 259 t-inv F
  0.000000  0.234375  0.234375    0.00000000 260 t-inv F
  0.000000  0.218750  0.218750    0.00000000 261 t-inv F
  0.000000  0.203125  0.203125    0.00000000 262 t-inv F
  0.000000  0.187500  0.187500    0.00000000 263 t-inv F
  0.000000  0.171875  0.171875    0.00000000 264 t-inv F
  0.000000  0.156250  0.156250    0.00000000 265 t-inv F
  0.000000  0.140625  0.140625    0.00000000 266 t-inv F
  0.000000  0.125000  0.125000    0.00000000 267 t-inv F
  0.000000  0.109375  0.109375    0.00000000 268 t-inv F
  0.000000  0.093750  0.093750    0.00000000 269 t-inv F
  0.000000  0.078125  0.078125    0.00000000 270 t-inv F
  0.000000  0.062500  0.062500    0.00000000 271 t-inv F
  0.000000  0.046875  0.046875    0.00000000 272 t-inv F
  0.000000  0.031250  0.031250    0.00000000 273 t-inv F
  0.000000  0.015625  0.015625    0.00000000 274 t-inv F
  0.000000  0.000000  0.000000    0.00000000 275 t-inv F
  0.000000  0.018519  0.000000    0.00000000 276 t-inv F
  0.000000  0.037037  0.000000    0.00000000 277 t-inv F
  0.000000  0.055556  0.000000    0.00000000 278 t-inv F
  0.000000  0.074074  0.000000    0.00000000 279 t-inv F
  0.000000  0.092593  0.000000    0.00000000 280 t-inv F
  0.000000  0.111111  0.000000    0.00000000 281 t-inv F
  0.000000  0.129630  0.000000    0.00000000 282 t-inv F
  0.000000  0.148148  0.000000    0.00000000 283 t-inv F
  0.000000  0.166667  0.000000    0.00000000 284 t-inv F
  0.000000  0.185185  0.000000    0.00000000 285 t-inv F
  0.000000  0.203704  0.000000    0.00000000 286 t-inv F
  0.000000  0.222222  0.000000    0.00000000 287 t-inv F
  0.000000  0.240741  0.000000    0.00000000 288 t-inv F
  0.000000  0.259259  0.000000    0.00000000 289 t-inv F
  0.000000  0.277778  0.000000    0.00000000 290 t-inv F
  0.000000  0.296296  0.000000    0.00000000 291 t-inv F
  0.000000  0.314815  0.000000    0.00000000 292 t-inv F
  0.000000  0.333333  0.000000    0.00000000 293 t-inv F
  0.000000  0.351852  0.000000    0.00000000 294 t-inv F
  0.000000  0.370370  0.000000    0.00000000 295 t-inv F
  0.000000  0.388889  0.000000    0.00000000 296 t-inv F
  0.000000  0.407407  0.000000    0.00000000 297 t-inv F
  0.000000  0.425926  0.000000    0.00000000 298 t-inv F
  0.000000  0.444444  0.000000    0.00000000 299 t-inv F
  0.000000  0.462963  0.000000    0.00000000 300 t-inv F
  0.000000  0.481481  0.000000    0.00000000 301 t-inv F
  0.000000  0.500000  0.000000    0.00000000 302 t-inv F
 -0.125000  0.000000  0.000000    0.00195313   2 t-inv F
  0.000000  0.000000 -0.125000    0.00195313   2 t-inv F
  0.000000  0.000000  0.125000    0.00195313   2 t-inv F
  0.000000 -0.125000  0.000000    0.00195313   2 t-inv F
  0.000000  0.125000  0.000000    0.00195313   2 t-inv F
 -0.250000  0.000000  0.000000    0.00195313   3 t-inv F
  0.000000  0.000000 -0.250000    0.00195313   3 t-inv F
  0.000000  0.000000  0.250000    0.00195313   3 t-inv F
  0.000000 -0.250000  0.000000    0.00195313   3 t-inv F
  0.000000  0.250000  0.000000    0.00195313   3 t-inv F
 -0.375000  0.000000  0.000000    0.00195313   4 t-inv F
  0.000000  0.000000 -0.375000    0.00195313   4 t-inv F
  0.000000  0.000000  0.375000    0.00195313   4 t-inv F
  0.000000 -0.375000  0.000000    0.00195313   4 t-inv F
  0.000000  0.375000  0.000000    0.00195313   4 t-inv F
  0.000000  0.000000 -0.500000    0.00195313   5 t-inv F
  0.000000 -0.500000  0.000000    0.00195313   5 t-inv F
 -0.125000 -0.125000  0.000000    0.00195313   6 t-inv F
 -0.125000  0.000000 -0.125000    0.00195313   6 t-inv F
  0.125000  0.000000  0.125000    0.00195313   6 t-inv F
  0.000000 -0.125000  0.125000    0.00195313   6 t-inv F
  0.000000  0.125000 -0.125000    0.00195313   6 t-inv F
 -0.250000 -0.125000  0.000000    0.00195313   7 t-inv F
 -0.250000  0.000000 -0.125000    0.00195313   7 t-inv F
  0.250000  0.000000  0.125000    0.00195313   7 t-inv F
 -0.125000  0.000000 -0.250000    0.00195313   7 t-inv F
  0.125000  0.000000  0.250000    0.00195313   7 t-inv F
  0.000000 -0.125000  0.250000    0.00195313   7 t-inv F
  0.000000  0.125000 -0.250000    0.00195313   7 t-inv F
  0.000000 -0.250000  0.125000    0.00195313   7 t-inv F
  0.000000  0.250000 -0.125000    0.00195313   7 t-inv F
  0.125000  0.250000  0.000000    0.00195313   7 t-inv F
 -0.125000 -0.250000  0.000000    0.00195313   7 t-inv F
 -0.375000 -0.125000  0.000000    0.00195313   8 t-inv F
 -0.375000  0.000000 -0.125000    0.00195313   8 t-inv F
  0.375000  0.000000  0.125000    0.00195313   8 t-inv F
 -0.125000  0.000000 -0.375000    0.00195313   8 t-inv F
  0.125000  0.000000  0.375000    0.00195313   8 t-inv F
  0.000000 -0.125000  0.375000    0.00195313   8 t-inv F
  0.000000  0.125000 -0.375000    0.00195313   8 t-inv F
  0.000000 -0.375000  0.125000    0.00195313   8 t-inv F
  0.000000  0.375000 -0.125000    0.00195313   8 t-inv F
  0.125000  0.375000  0.000000    0.00195313   8 t-inv F
 -0.125000 -0.375000  0.000000    0.00195313   8 t-inv F
 -0.500000 -0.125000  0.000000    0.00195313   9 t-inv F
 -0.500000  0.000000 -0.125000    0.00195313   9 t-inv F
  0.500000  0.000000  0.125000    0.00195313   9 t-inv F
 -0.125000  0.000000 -0.500000    0.00195313   9 t-inv F
  0.125000  0.000000  0.500000    0.00195313   9 t-inv F
  0.000000 -0.125000  0.500000    0.00195313   9 t-inv F
  0.000000  0.125000 -0.500000    0.00195313   9 t-inv F
  0.000000 -0.500000  0.125000    0.00195313   9 t-inv F
  0.000000  0.500000 -0.125000    0.00195313   9 t-inv F
  0.125000  0.500000  0.000000    0.00195313   9 t-inv F
 -0.125000 -0.500000  0.000000    0.00195313   9 t-inv F
  0.375000 -0.125000  0.000000    0.00195313  10 t-inv F
  0.375000  0.000000 -0.125000    0.00195313  10 t-inv F
 -0.375000  0.000000  0.125000    0.00195313  10 t-inv F
 -0.125000  0.000000  0.375000    0.00195313  10 t-inv F
  0.125000  0.000000 -0.375000    0.00195313  10 t-inv F
  0.000000 -0.125000 -0.375000    0.00195313  10 t-inv F
  0.000000  0.125000  0.375000    0.00195313  10 t-inv F
  0.000000  0.375000  0.125000    0.00195313  10 t-inv F
  0.000000 -0.375000 -0.125000    0.00195313  10 t-inv F
  0.125000 -0.375000  0.000000    0.00195313  10 t-inv F
 -0.125000  0.375000  0.000000    0.00195313  10 t-inv F
  0.250000 -0.125000  0.000000    0.00195313  11 t-inv F
  0.250000  0.000000 -0.125000    0.00195313  11 t-inv F
 -0.250000  0.000000  0.125000    0.00195313  11 t-inv F
 -0.125000  0.000000  0.250000    0.00195313  11 t-inv F
  0.125000  0.000000 -0.250000    0.00195313  11 t-inv F
  0.000000 -0.125000 -0.250000    0.00195313  11 t-inv F
  0.000000  0.125000  0.250000    0.00195313  11 t-inv F
  0.000000  0.250000  0.125000    0.00195313  11 t-inv F
  0.000000 -0.250000 -0.125000    0.00195313  11 t-inv F
  0.125000 -0.250000  0.000000    0.00195313  11 t-inv F
 -0.125000  0.250000  0.000000    0.00195313  11 t-inv F
  0.125000 -0.125000  0.000000    0.00195313  12 t-inv F
  0.125000  0.000000 -0.125000    0.00195313  12 t-inv F
 -0.125000  0.000000  0.125000    0.00195313  12 t-inv F
  0.000000 -0.125000 -0.125000    0.00195313  12 t-inv F
  0.000000  0.125000  0.125000    0.00195313  12 t-inv F
 -0.250000 -0.250000  0.000000    0.00195313  13 t-inv F
 -0.250000  0.000000 -0.250000    0.00195313  13 t-inv F
  0.250000  0.000000  0.250000    0.00195313  13 t-inv F
  0.000000 -0.250000  0.250000    0.00195313  13 t-inv F
  0.000000  0.250000 -0.250000    0.00195313  13 t-inv F
 -0.375000 -0.250000  0.000000    0.00195313  14 t-inv F
 -0.375000  0.000000 -0.250000    0.00195313  14 t-inv F
  0.375000  0.000000  0.250000    0.00195313  14 t-inv F
 -0.250000  0.000000 -0.375000    0.00195313  14 t-inv F
  0.250000  0.000000  0.375000    0.00195313  14 t-inv F
  0.000000 -0.250000  0.375000    0.00195313  14 t-inv F
  0.000000  0.250000 -0.375000    0.00195313  14 t-inv F
  0.000000 -0.375000  0.250000    0.00195313  14 t-inv F
  0.000000  0.375000 -0.250000    0.00195313  14 t-inv F
  0.250000  0.375000  0.000000    0.00195313  14 t-inv F
 -0.250000 -0.375000  0.000000    0.00195313  14 t-inv F
 -0.500000 -0.250000  0.000000    0.00195313  15 t-inv F
 -0.500000  0.000000 -0.250000    0.00195313  15 t-inv F
  0.500000  0.000000  0.250000    0.00195313  15 t-inv F
 -0.250000  0.000000 -0.500000    0.00195313  15 t-inv F
  0.250000  0.000000  0.500000    0.00195313  15 t-inv F
  0.000000 -0.250000  0.500000    0.00195313  15 t-inv F
  0.000000  0.250000 -0.500000    0.00195313  15 t-inv F
  0.000000 -0.500000  0.250000    0.00195313  15 t-inv F
  0.000000  0.500000 -0.250000    0.00195313  15 t-inv F
  0.250000  0.500000  0.000000    0.00195313  15 t-inv F
 -0.250000 -0.500000  0.000000    0.00195313  15 t-inv F
  0.375000 -0.250000  0.000000    0.00195313  16 t-inv F
  0.375000  0.000000 -0.250000    0.00195313  16 t-inv F
 -0.375000  0.000000  0.250000    0.00195313  16 t-inv F
 -0.250000  0.000000  0.375000    0.00195313  16 t-inv F
  0.250000  0.000000 -0.375000    0.00195313  16 t-inv F
  0.000000 -0.250000 -0.375000    0.00195313  16 t-inv F
  0.000000  0.250000  0.375000    0.00195313  16 t-inv F
  0.000000  0.375000  0.250000    0.00195313  16 t-inv F
  0.000000 -0.375000 -0.250000    0.00195313  16 t-inv F
  0.250000 -0.375000  0.000000    0.00195313  16 t-inv F
 -0.250000  0.375000  0.000000    0.00195313  16 t-inv F
  0.250000 -0.250000  0.000000    0.00195313  17 t-inv F
  0.250000  0.000000 -0.250000    0.00195313  17 t-inv F
 -0.250000  0.000000  0.250000    0.00195313  17 t-inv F
  0.000000 -0.250000 -0.250000    0.00195313  17 t-inv F
  0.000000  0.250000  0.250000    0.00195313  17 t-inv F
 -0.375000 -0.375000  0.000000    0.00195313  18 t-inv F
 -0.375000  0.000000 -0.375000    0.00195313  18 t-inv F
  0.375000  0.000000  0.375000    0.00195313  18 t-inv F
  0.000000 -0.375000  0.375000    0.00195313  18 t-inv F
  0.000000  0.375000 -0.375000    0.00195313  18 t-inv F
 -0.500000 -0.375000  0.000000    0.00195313  19 t-inv F
 -0.500000  0.000000 -0.375000    0.00195313  19 t-inv F
  0.500000  0.000000  0.375000    0.00195313  19 t-inv F
 -0.375000  0.000000 -0.500000    0.00195313  19 t-inv F
  0.375000  0.000000  0.500000    0.00195313  19 t-inv F
  0.000000 -0.375000  0.500000    0.00195313  19 t-inv F
  0.000000  0.375000 -0.500000    0.00195313  19 t-inv F
  0.000000 -0.500000  0.375000    0.00195313  19 t-inv F
  0.000000  0.500000 -0.375000    0.00195313  19 t-inv F
  0.375000  0.500000  0.000000    0.00195313  19 t-inv F
 -0.375000 -0.500000  0.000000    0.00195313  19 t-inv F
  0.375000 -0.375000  0.000000    0.00195313  20 t-inv F
  0.375000  0.000000 -0.375000    0.00195313  20 t-inv F
 -0.375000  0.000000  0.375000    0.00195313  20 t-inv F
  0.000000 -0.375000 -0.375000    0.00195313  20 t-inv F
  0.000000  0.375000  0.375000    0.00195313  20 t-inv F
 -0.500000  0.000000 -0.500000    0.00195313  21 t-inv F
  0.000000 -0.500000  0.500000    0.00195313  21 t-inv F
 -0.125000 -0.125000 -0.125000    0.00195313  22 t-inv F
 -0.125000  0.125000 -0.125000    0.00195313  22 t-inv F
  0.125000 -0.125000  0.125000    0.00195313  22 t-inv F
 -0.125000 -0.125000  0.125000    0.00195313  22 t-inv F
  0.125000  0.125000 -0.125000    0.00195313  22 t-inv F
 -0.250000 -0.125000 -0.125000    0.00195313  23 t-inv F
 -0.125000  0.125000 -0.250000    0.00195313  23 t-inv F
  0.125000 -0.125000  0.250000    0.00195313  23 t-inv F
 -0.125000 -0.250000  0.125000    0.00195313  23 t-inv F
  0.125000  0.250000 -0.125000    0.00195313  23 t-inv F
 -0.375000 -0.125000 -0.125000    0.00195313  24 t-inv F
 -0.125000  0.125000 -0.375000    0.00195313  24 t-inv F
  0.125000 -0.125000  0.375000    0.00195313  24 t-inv F
 -0.125000 -0.375000  0.125000    0.00195313  24 t-inv F
  0.125000  0.375000 -0.125000    0.00195313  24 t-inv F
 -0.500000 -0.125000 -0.125000    0.00195313  25 t-inv F
 -0.125000  0.125000 -0.500000    0.00195313  25 t-inv F
  0.125000 -0.125000  0.500000    0.00195313  25 t-inv F
 -0.125000 -0.500000  0.125000    0.00195313  25 t-inv F
  0.125000  0.500000 -0.125000    0.00195313  25 t-inv F
  0.375000 -0.125000 -0.125000    0.00195313  26 t-inv F
 -0.125000  0.125000  0.375000    0.00195313  26 t-inv F
  0.125000 -0.125000 -0.375000    0.00195313  26 t-inv F
 -0.125000  0.375000  0.125000    0.00195313  26 t-inv F
  0.125000 -0.375000 -0.125000    0.00195313  26 t-inv F
  0.250000 -0.125000 -0.125000    0.00195313  27 t-inv F
 -0.125000  0.125000  0.250000    0.00195313  27 t-inv F
  0.125000 -0.125000 -0.250000    0.00195313  27 t-inv F
 -0.125000  0.250000  0.125000    0.00195313  27 t-inv F
  0.125000 -0.250000 -0.125000    0.00195313  27 t-inv F
  0.125000 -0.125000 -0.125000    0.00195313  28 t-inv F
 -0.125000 -0.250000 -0.125000    0.00195313  29 t-inv F
 -0.125000 -0.125000 -0.250000    0.00195313  29 t-inv F
  0.125000  0.125000  0.250000    0.00195313  29 t-inv F
 -0.250000  0.125000 -0.125000    0.00195313  29 t-inv F
  0.250000 -0.125000  0.125000    0.00195313  29 t-inv F
  0.125000 -0.250000  0.125000    0.00195313  29 t-inv F
 -0.125000  0.250000 -0.125000    0.00195313  29 t-inv F
 -0.125000 -0.125000  0.250000    0.00195313  29 t-inv F
  0.125000  0.125000 -0.250000    0.00195313  29 t-inv F
  0.250000  0.125000 -0.125000    0.00195313  29 t-inv F
 -0.250000 -0.125000  0.125000    0.00195313  29 t-inv F
 -0.250000 -0.250000 -0.125000    0.00195313  30 t-inv F
 -0.250000 -0.125000 -0.250000    0.00195313  30 t-inv F
  0.250000  0.125000  0.250000    0.00195313  30 t-inv F
 -0.250000  0.125000 -0.250000    0.00195313  30 t-inv F
  0.250000 -0.125000  0.250000    0.00195313  30 t-inv F
  0.125000 -0.250000  0.250000    0.00195313  30 t-inv F
 -0.125000  0.250000 -0.250000    0.00195313  30 t-inv F
 -0.125000 -0.250000  0.250000    0.00195313  30 t-inv F
  0.125000  0.250000 -0.250000    0.00195313  30 t-inv F
  0.250000  0.250000 -0.125000    0.00195313  30 t-inv F
 -0.250000 -0.250000  0.125000    0.00195313  30 t-inv F
 -0.375000 -0.250000 -0.125000    0.00195313  31 t-inv F
 -0.375000 -0.125000 -0.250000    0.00195313  31 t-inv F
  0.375000  0.125000  0.250000    0.00195313  31 t-inv F
 -0.250000  0.125000 -0.375000    0.00195313  31 t-inv F
  0.250000 -0.125000  0.375000    0.00195313  31 t-inv F
  0.125000 -0.250000  0.375000    0.00195313  31 t-inv F
 -0.125000  0.250000 -0.375000    0.00195313  31 t-inv F
 -0.125000 -0.375000  0.250000    0.00195313  31 t-inv F
  0.125000  0.375000 -0.250000    0.00195313  31 t-inv F
  0.250000  0.375000 -0.125000    0.00195313  31 t-inv F
 -0.250000 -0.375000  0.125000    0.00195313  31 t-inv F
 -0.500000 -0.250000 -0.125000    0.00195313  32 t-inv F
 -0.500000 -0.125000 -0.250000    0.00195313  32 t-inv F
  0.500000  0.125000  0.250000    0.00195313  32 t-inv F
 -0.250000  0.125000 -0.500000    0.00195313  32 t-inv F
  0.250000 -0.125000  0.500000    0.00195313  32 t-inv F
  0.125000 -0.250000  0.500000    0.00195313  32 t-inv F
 -0.125000  0.250000 -0.500000    0.00195313  32 t-inv F
 -0.125000 -0.500000  0.250000    0.00195313  32 t-inv F
  0.125000  0.500000 -0.250000    0.00195313  32 t-inv F
[...]
  336        forhar                                0.000518                            2   3
  337          m_sumb_d                              0.000149                          2   4
  338        strehar                               0.000349                            1   3
  339          m_sumb_d                              0.000035                          1   4
  340        chggra                                0.002561                            1   3
  341          fft3d_mpi                             0.002175                          3   4
  342            fftbrc_mpi                            0.002094                        3   5
  343              fftbas_plan_mpi                       0.002094                      3   6
  344                map_forward                           0.001332                    4   7
  345                  map_gather                            0.000037                  2   8
  346                  m_alltoallv_z                         0.000043                  2   8
  347                  map_scatter                           0.001224                  2   8
  348                map_backward                          0.000674                    2   7
  349                  map_gather                            0.000018                  1   8
  350                  m_alltoallv_z                         0.000019                  1   8
  351                  map_scatter                           0.000622                  1   8
  352          m_sumb_d                              0.000040                          2   4
  353          pothar                                0.000101                          1   4
  354            m_sumb_d                              0.000036                        1   5
  355        m_bcast_d                             0.000128                            2   3
  356      potlok                                0.039630                              1   2
  357        fft3d_mpi                             0.015539                           13   3
  358          fftbrc_mpi                            0.015127                         13   4
  359            fftbas_plan_mpi                       0.015118                       13   5
  360              map_forward                           0.005285                     14   6
  361                map_gather                            0.000145                    8   7
  362                m_alltoallv_z                         0.000150                    8   7
  363                map_scatter                           0.004907                    8   7
  364              map_backward                          0.009469                     12   6
  365                map_gather                            0.000107                    6   7
  366                m_alltoallv_z                         0.000118                    6   7
  367                map_scatter                           0.009160                    6   7
  368        ggaall_grid                           0.022800                            1   3
  369        m_sumb_d                              0.000190                            5   3
  370        pothar                                0.000131                            1   3
  371          m_sumb_d                              0.000063                          1   4
  372        m_bcast_d                             0.000016                            1   3
  373      potlok_metagga                        0.000000                              1   2
  374      set_dd_magatom                        0.000004                              1   2
  375      set_dd_paw                            0.032180                              1   2
  376        m_sumb_d                              0.032167                            7   3
  377      densta                                0.002420                              1   2
  378        m_sumb_d                              0.000945                           18   3
 
 Flat profile
 ============
 
             routine name                   CPU           calls
 ---------------------------------------------------------------
 fock_fwd                              647.828809        1812
 phaser_hf                             471.742912     1082368
 dllmm_trans_eccp_nl_fock_acc          210.542175     1391616
 redis_pw                               50.838037       71565
 fock_bck                               37.911704        1812
 spher                                  33.772747        3946
 rpromu_hf_acc                          32.444469     2473984
 fock_force                             27.066480           1
 eddav                                  27.009881           6
 lapack                                 20.429807       13105
 batched_fft                            13.465645     2164736
 fock_set_gfac_vkpt                     13.334773      927744
 fock_set_fsg                           12.999763          13
 m_sumb_d                               11.924498       71354
 racc0mu_hf_acc                         11.711070     1082368
 m_bcast_d                               9.319614       26222
 fft_and_gather                          8.770249        2114
 fft3d                                   8.249411     1119712
 total_time                              7.884292           1
 fock_set_gfac_der                       6.804281      154624
 depsum_two_bands_rholm_trace_m          6.534881      927744
 apply_gfac_exchange_mu_acc              6.134861      927744
 contraction                             5.437895     1391616
 pw_charge_trace_mu_acc                  4.507906     1082368
 calc_dllmm_trans_and_overl_foc          4.295934      927744
 vhamil_trace_mu_acc                     4.119981      927744
 init_acc                                3.887666           1
 m_alltoall_d                            3.641716      135461
 fock_all_dblbuf                         3.354138           6
 fock_set_fsg_der                        2.734546           1
 acc_cufft_makeplan                      2.371293          33
 eccp                                    2.244798        3624
 strenl                                  1.199791           1
 m_alltoallv_z                           1.148748         136
 depsum_two_bands_rholm_trace_m          1.121703      154624
 fftwav                                  1.072407      154896
 fock_charge_mu                          1.068297     1082368
 depsum_sym                              1.066817           7
 w1_copy                                 1.062521      188958
 m_bcast_z                               1.013847       27602
 soft_charge_sym                         0.975031           7
 fock_ace_acc_apply                      0.894713       13105
 apply_gfac_der_mu                       0.668588      154624
 apply_gfac_weight_mu                    0.545089      154624
 orth1                                   0.498058       43543
 hamiltmu                                0.475662       13105
 redis_proj                              0.448916       49702
 fock_ace_construct                      0.416574           6
 proj1_acc                               0.412246        9664
 phase                                   0.376839        7853
 choleski                                0.302829        2114
 projlat_der                             0.289657         302
 fft3d_mpi                               0.277077      964938
 overl1                                  0.271985       16729
 reduce                                  0.270571        1812
 projmu_acc                              0.221696        9481
 vnlac0_acc                              0.202533       16729
 fftwav_mpi                              0.194061      154896
 fornl                                   0.188167           1
 ggemm                                   0.186330       16729
 ggaall_grid                             0.185104           8
 overl                                   0.183668       22888
 map_scatter                             0.166069         136
 setup_precond                           0.133229        3624
 m_ibcast_z_from                         0.120995      253680
 newband                                 0.093560       14917
 pw_charge                               0.087746        3584
 w1_dot                                  0.085490        3624
 wrk_allocate                            0.083789           1
 w1_daxpy                                0.083708       13105
 proj                                    0.082346         302
 lincom                                  0.080466        3926
 vhamil                                  0.073547       13105
 m_ireduce_z_to                          0.072372      173952
 fftext_mpi                              0.069962       16729
 projxyz                                 0.068333         302
 proall                                  0.064268           1
 apply_precond                           0.062509        9481
 kinhamil                                0.061843       13105
 orthch                                  0.050001           1
 acc_init_cublas                         0.039827           1
 elmin                                   0.036318           1
 acc_init_cusolver                       0.022908           1
 force_and_stress                        0.015753           1
 rspher_all                              0.011711          10
 w1_projall                              0.011671        9481
 potlok                                  0.011443           7
 densta                                  0.010808           7
 setdij_                                 0.008653          34
 fftbas_plan_mpi                         0.005427         122
 inisym                                  0.004575           1
 waitred                                 0.004172        1812
 waitgth                                 0.003936        1812
 map_gather                              0.002697         136
 augmentation_charge                     0.002379           7
 truncate_high_frequency_w1              0.001733       16729
 dfftw_execute                           0.001410          51
 wrk_deallocate                          0.001209           1
 forloc                                  0.000776           1
 map_forward                             0.000721         118
 map_backward                            0.000699         126
 pothar                                  0.000555           8
 stufak                                  0.000477           1
 forhar                                  0.000369           2
 fewald                                  0.000353           1
 strehar                                 0.000314           1
 strelo                                  0.000278           1
 chggra                                  0.000245           1
 strkin                                  0.000241           1
 set_charge                              0.000224           7
 set_dd_paw                              0.000207           8
 rsp                                     0.000174           1
 fftbrc_mpi                              0.000079         122
 fft_gq                                  0.000041           7
 posmap                                  0.000040           2
 set_dd_magatom                          0.000033           8
 vectorpot                               0.000031           7
 rcp                                     0.000028           1
 crpa_reader                             0.000026           1
 acc_cufft_makeplans                     0.000015           5
 fordep                                  0.000012           1
 potlok_metagga                          0.000001           7
 rotate_active_occupied_orbital          0.000001           1
 redis_pw_over_bands                     0.000000           1
 ---------------------------------------------------------------
  summed up times     1732.298559904099     
 
 Accumulative profile
 ====================
 
             routine name                   CPU           calls
 ---------------------------------------------------------------
 total_time                           1732.298560           1
 elmin                                1307.026495           1
 fock_all_dblbuf                      1176.760489           6
 fock_fwd                             1133.811398        1812
 phaser_hf                             471.742912     1082368
 fock_set_gfac_vkpt                    416.604418      927744
 force_and_stress                      393.488659           1
 fock_force                            388.297662           1
 dllmm_trans_eccp_nl_fock_acc          210.542175     1391616
 eddav                                 119.274163           6
 fock_set_gfac_der                      75.277548      154624
 redis_pw                               52.506119       71565
 fock_bck                               38.072762        1812
 spher                                  33.772747        3946
 rpromu_hf_acc                          32.444469     2473984
 projlat_der                            31.197274         302
 fock_charge_mu                         24.943857     1082368
 lapack                                 20.429807       13105
 fock_ace_acc_apply                     18.376564       13105
 batched_fft                            13.465645     2164736
 fock_set_fsg                           12.999763          13
 m_sumb_d                               11.924498       71354
 racc0mu_hf_acc                         11.711070     1082368
 m_bcast_d                               9.319614       26222
 fft_and_gather                          8.994625        2114
 fft3d_mpi                               8.677037      964938
 fft3d                                   8.249411     1119712
 fock_ace_construct                      7.450380           6
 depsum_two_bands_rholm_trace_m          6.534881      927744
 apply_gfac_exchange_mu_acc              6.134861      927744
 contraction                             5.437895     1391616
 newband                                 4.948171       14917
 strenl                                  4.517322           1
 pw_charge_trace_mu_acc                  4.507906     1082368
 calc_dllmm_trans_and_overl_foc          4.295934      927744
 vhamil_trace_mu_acc                     4.119981      927744
 init_acc                                3.887666           1
 m_alltoall_d                            3.641716      135461
 orthch                                  3.046857           1
 wrk_allocate                            2.828829           1
 fock_set_fsg_der                        2.734546           1
 fftwav_mpi                              2.441769      154896
 redis_proj                              2.422549       49702
 set_charge                              2.419393           7
 acc_cufft_makeplan                      2.371293          33
 fftwav                                  2.247708      154896
 eccp                                    2.244798        3624
 acc_cufft_makeplans                     1.593667           5
 potlok                                  1.485145           7
 fftbrc_mpi                              1.325850         122
 fftbas_plan_mpi                         1.325771         122
 soft_charge_sym                         1.306793           7
 map_forward                             1.239217         118
 m_alltoallv_z                           1.148748         136
 hamiltmu                                1.145355       13105
 depsum_two_bands_rholm_trace_m          1.121703      154624
 depsum_sym                              1.107007           7
 w1_copy                                 1.062521      188958
 m_bcast_z                               1.013847       27602
 apply_gfac_der_mu                       0.668588      154624
 apply_gfac_weight_mu                    0.545089      154624
 orth1                                   0.498058       43543
 proj1_acc                               0.412246        9664
 phase                                   0.376839        7853
 reduce                                  0.342943        1812
 choleski                                0.302829        2114
 overl1                                  0.271985       16729
 set_dd_paw                              0.257752           8
 kinhamil                                0.234642       13105
 w1_projall                              0.233367        9481
 projmu_acc                              0.221696        9481
 fftext_mpi                              0.220842       16729
 fornl                                   0.211457           1
 vnlac0_acc                              0.202533       16729
 ggemm                                   0.186330       16729
 ggaall_grid                             0.185104           8
 overl                                   0.183668       22888
 map_scatter                             0.166069         136
 proall                                  0.157796           1
 setup_precond                           0.133229        3624
 m_ibcast_z_from                         0.120995      253680
 proj                                    0.090009         302
 pw_charge                               0.087746        3584
 w1_dot                                  0.085490        3624
 w1_daxpy                                0.083708       13105
 lincom                                  0.080466        3926
 map_backward                            0.079717         126
 vhamil                                  0.073547       13105
 m_ireduce_z_to                          0.072372      173952
 projxyz                                 0.068810         302
 apply_precond                           0.062509        9481
 acc_init_cublas                         0.039827           1
 acc_init_cusolver                       0.022908           1
 setdij_                                 0.019252          34
 densta                                  0.017358           7
 rspher_all                              0.011711          10
 augmentation_charge                     0.005369           7
 inisym                                  0.004615           1
 fft_gq                                  0.004439           7
 waitred                                 0.004172        1812
 waitgth                                 0.003936        1812
 map_gather                              0.002697         136
 chggra                                  0.002561           1
 fordep                                  0.001946           1
 truncate_high_frequency_w1              0.001733       16729
 pothar                                  0.001556           8
 dfftw_execute                           0.001410          51
 wrk_deallocate                          0.001209           1
 forloc                                  0.000899           1
 fewald                                  0.000770           1
 forhar                                  0.000518           2
 stufak                                  0.000477           1
 strehar                                 0.000349           1
 strelo                                  0.000324           1
 strkin                                  0.000290           1
 rsp                                     0.000174           1
 posmap                                  0.000040           2
 set_dd_magatom                          0.000033           8
 vectorpot                               0.000031           7
 rcp                                     0.000028           1
 crpa_reader                             0.000026           1
 potlok_metagga                          0.000001           7
 rotate_active_occupied_orbital          0.000001           1
 redis_pw_over_bands                     0.000000           1
 ---------------------------------------------------------------
 
Profiling took   2.607640  1.539522  0.003710  0.003623 seconds
Profiling took   1.477130 seconds
