 running on   24 total cores
 distrk:  each k-point on   24 cores,    1 groups
 distr:  one band on    1 cores,   24 groups
 OpenACC runtime initialized ...   24 GPUs detected
 vasp.6.3.2 27Jun22 (build Jan 18 2024 14:18:24) complex                         
 POSCAR found type information on POSCAR BeB N 
 POSCAR found :  3 types and      15 ions
 Reading from existing POTCAR
 scaLAPACK will be used selectively (only on CPU)
 -----------------------------------------------------------------------------
|                                                                             |
|           W    W    AA    RRRRR   N    N  II  N    N   GGGG   !!!           |
|           W    W   A  A   R    R  NN   N  II  NN   N  G    G  !!!           |
|           W    W  A    A  R    R  N N  N  II  N N  N  G       !!!           |
|           W WW W  AAAAAA  RRRRR   N  N N  II  N  N N  G  GGG   !            |
|           WW  WW  A    A  R   R   N   NN  II  N   NN  G    G                |
|           W    W  A    A  R    R  N    N  II  N    N   GGGG   !!!           |
|                                                                             |
|     For optimal performance we recommend to set                             |
|       NCORE = 2 up to number-of-cores-per-socket                            |
|     NCORE specifies how many cores store one orbital (NPAR=cpu/NCORE).      |
|     This setting can greatly improve the performance of VASP for DFT.       |
|     The default, NCORE=1 might be grossly inefficient on modern             |
|     multi-core architectures or massively parallel machines. Do your        |
|     own testing! More info at https://www.vasp.at/wiki/index.php/NCORE      |
|     Unfortunately you need to use the default for GW and RPA                |
|     calculations (for HF NCORE is supported but not extensively tested      |
|     yet).                                                                   |
|                                                                             |
 -----------------------------------------------------------------------------

 Reading from existing POTCAR
 LDA part: xc-table for Pade appr. of Perdew
 found WAVECAR, reading the header
  number of k-points has changed, file:    65 present:   302
  trying to continue reading WAVECAR, but it might fail
 WAVECAR: different cutoff or change in lattice found
 POSCAR, INCAR and KPOINTS ok, starting setup
 FFT: planning ... GRIDC
 FFT: planning ... GRID_SOFT
 FFT: planning ... GRID
 reading WAVECAR
 the WAVECAR file was read successfully
 initial charge from wavefunction
 entering main loop
       N       E                     dE             d eps       ncg     rms          rms(c)
DAV:   1    -0.120730277438E+03   -0.12073E+03   -0.33633E-02 37488   0.892E-01    0.289E-01
DAV:   2    -0.120728414019E+03    0.18634E-02   -0.14633E-03 42960   0.288E-01    0.117E-01
DAV:   3    -0.120728417842E+03   -0.38232E-05   -0.19927E-03 37968   0.199E-01    0.229E-02
DAV:   4    -0.120728469649E+03   -0.51807E-04   -0.11253E-04 41736   0.544E-02    0.215E-02
DAV:   5    -0.120728458002E+03    0.11647E-04   -0.17297E-05 37392   0.268E-02    0.816E-03
DAV:   6    -0.120728459861E+03   -0.18590E-05   -0.91360E-06 30000   0.141E-02
   1 F= -.12072846E+03 E0= -.12072846E+03  d E =-.307452E-12
 writing wavefunctions
 PROFILE, used timers:     378
