<?xml version="1.0" encoding="ISO-8859-1"?>
<modeling>
 <generator>
  <i name="program" type="string">vasp </i>
  <i name="version" type="string">6.3.2  </i>
  <i name="subversion" type="string">27Jun22 (build Jan 18 2024 14:18:24) complex                          parallel </i>
  <i name="platform" type="string">LinuxNV_CrayMPICH </i>
  <i name="date" type="string">2024 05 26 </i>
  <i name="time" type="string">19:48:27 </i>
 </generator>
 <incar>
  <i type="string" name="SYSTEM">Be4P3Rb</i>
  <i type="int" name="ISTART">     1</i>
  <i type="string" name="PREC">Accurate</i>
  <i type="string" name="ALGO">Normal</i>
  <i type="int" name="ICHARG">     0</i>
  <i type="int" name="NELM">    90</i>
  <i type="int" name="IBRION">     2</i>
  <i name="EDIFF">      0.00001000</i>
  <i name="EDIFFG">     -0.01000000</i>
  <i type="int" name="NSW">     0</i>
  <i type="int" name="ISIF">     3</i>
  <i name="ENCUT">    400.00000000</i>
  <i type="int" name="NEDOS"> 10001</i>
  <i type="logical" name="LREAL"> F  </i>
  <i type="int" name="ISMEAR">     0</i>
  <i name="SIGMA">      0.01000000</i>
  <i type="logical" name="LWAVE"> T  </i>
  <i type="logical" name="LCHARG"> T  </i>
  <i name="HFSCREEN">      0.20000000</i>
  <i type="logical" name="LHFCALC"> T  </i>
  <i type="string" name="GGA">PE</i>
  <i name="AEXX">      0.25000000</i>
 </incar>
 <primitive_cell>
  <structure name="primitive_cell" >
   <crystal>
    <varray name="basis" >
     <v>       5.21128944      -0.00183198      -0.00132293 </v>
     <v>      -2.35472141       4.64895989       0.00132293 </v>
     <v>      -2.35471712       1.44743372       4.41788713 </v>
    </varray>
    <i name="volume">    106.99348123 </i>
    <varray name="rec_basis" >
     <v>       0.19194314       0.09720011       0.07045927 </v>
     <v>       0.00005775       0.21515118      -0.07045927 </v>
     <v>       0.00005746      -0.00003532       0.22639474 </v>
    </varray>
   </crystal>
   <varray name="positions" >
    <v>       0.49999994       0.49999994       0.50000000 </v>
    <v>       0.66934316       0.00325553       0.00325509 </v>
    <v>       0.99674570       0.33065808       0.00325535 </v>
    <v>       0.32396096       0.19732857       0.19732731 </v>
    <v>       0.80267307       0.67604060       0.19732743 </v>
    <v>       0.19732817       0.80267348       0.32396087 </v>
    <v>       0.99674512       0.00325603       0.33065728 </v>
    <v>       0.00325603       0.99674512       0.66934272 </v>
    <v>       0.80267348       0.19732817       0.67603913 </v>
    <v>       0.19732857       0.32396096       0.80267269 </v>
    <v>       0.67604060       0.80267307       0.80267257 </v>
    <v>       0.00325553       0.66934316       0.99674491 </v>
    <v>       0.33065808       0.99674570       0.99674465 </v>
    <v>       0.62342718       0.37657444       0.37657565 </v>
    <v>       0.37657444       0.62342718       0.62342435 </v>
   </varray>
  </structure>
  <varray name="primitive_index" >
   <v type="int" >        1 </v>
   <v type="int" >        2 </v>
   <v type="int" >        3 </v>
   <v type="int" >        4 </v>
   <v type="int" >        5 </v>
   <v type="int" >        6 </v>
   <v type="int" >        7 </v>
   <v type="int" >        8 </v>
   <v type="int" >        9 </v>
   <v type="int" >       10 </v>
   <v type="int" >       11 </v>
   <v type="int" >       12 </v>
   <v type="int" >       13 </v>
   <v type="int" >       14 </v>
   <v type="int" >       15 </v>
  </varray>
 </primitive_cell>
 <kpoints>
  <varray name="kpointlist" >
   <v>       0.00000000       0.00000000       0.00000000 </v>
   <v>       0.12500000       0.00000000       0.00000000 </v>
   <v>       0.25000000       0.00000000       0.00000000 </v>
   <v>       0.37500000       0.00000000       0.00000000 </v>
   <v>       0.50000000       0.00000000       0.00000000 </v>
   <v>       0.12500000       0.12500000       0.00000000 </v>
   <v>       0.25000000       0.12500000       0.00000000 </v>
   <v>       0.37500000       0.12500000       0.00000000 </v>
   <v>       0.50000000       0.12500000       0.00000000 </v>
   <v>      -0.37500000       0.12500000       0.00000000 </v>
   <v>      -0.25000000       0.12500000       0.00000000 </v>
   <v>      -0.12500000       0.12500000       0.00000000 </v>
   <v>       0.25000000       0.25000000       0.00000000 </v>
   <v>       0.37500000       0.25000000       0.00000000 </v>
   <v>       0.50000000       0.25000000       0.00000000 </v>
   <v>      -0.37500000       0.25000000       0.00000000 </v>
   <v>      -0.25000000       0.25000000       0.00000000 </v>
   <v>       0.37500000       0.37500000       0.00000000 </v>
   <v>       0.50000000       0.37500000       0.00000000 </v>
   <v>      -0.37500000       0.37500000       0.00000000 </v>
   <v>       0.50000000       0.50000000       0.00000000 </v>
   <v>       0.12500000       0.12500000       0.12500000 </v>
   <v>       0.25000000       0.12500000       0.12500000 </v>
   <v>       0.37500000       0.12500000       0.12500000 </v>
   <v>       0.50000000       0.12500000       0.12500000 </v>
   <v>      -0.37500000       0.12500000       0.12500000 </v>
   <v>      -0.25000000       0.12500000       0.12500000 </v>
   <v>      -0.12500000       0.12500000       0.12500000 </v>
   <v>       0.12500000       0.25000000       0.12500000 </v>
   <v>       0.25000000       0.25000000       0.12500000 </v>
   <v>       0.37500000       0.25000000       0.12500000 </v>
   <v>       0.50000000       0.25000000       0.12500000 </v>
   <v>      -0.37500000       0.25000000       0.12500000 </v>
   <v>      -0.25000000       0.25000000       0.12500000 </v>
   <v>       0.12500000       0.37500000       0.12500000 </v>
   <v>       0.25000000       0.37500000       0.12500000 </v>
   <v>       0.37500000       0.37500000       0.12500000 </v>
   <v>       0.50000000       0.37500000       0.12500000 </v>
   <v>      -0.37500000       0.37500000       0.12500000 </v>
   <v>       0.12500000       0.50000000       0.12500000 </v>
   <v>       0.25000000       0.50000000       0.12500000 </v>
   <v>       0.37500000       0.50000000       0.12500000 </v>
   <v>       0.50000000       0.50000000       0.12500000 </v>
   <v>       0.25000000      -0.37500000       0.12500000 </v>
   <v>       0.37500000      -0.37500000       0.12500000 </v>
   <v>       0.25000000      -0.25000000       0.12500000 </v>
   <v>       0.25000000       0.25000000       0.25000000 </v>
   <v>       0.37500000       0.25000000       0.25000000 </v>
   <v>       0.50000000       0.25000000       0.25000000 </v>
   <v>      -0.37500000       0.25000000       0.25000000 </v>
   <v>      -0.25000000       0.25000000       0.25000000 </v>
   <v>       0.25000000       0.37500000       0.25000000 </v>
   <v>       0.37500000       0.37500000       0.25000000 </v>
   <v>       0.50000000       0.37500000       0.25000000 </v>
   <v>      -0.37500000       0.37500000       0.25000000 </v>
   <v>       0.25000000       0.50000000       0.25000000 </v>
   <v>       0.37500000       0.50000000       0.25000000 </v>
   <v>       0.50000000       0.50000000       0.25000000 </v>
   <v>       0.37500000      -0.37500000       0.25000000 </v>
   <v>       0.37500000       0.37500000       0.37500000 </v>
   <v>       0.50000000       0.37500000       0.37500000 </v>
   <v>      -0.37500000       0.37500000       0.37500000 </v>
   <v>       0.37500000       0.50000000       0.37500000 </v>
   <v>       0.50000000       0.50000000       0.37500000 </v>
   <v>       0.50000000       0.50000000       0.50000000 </v>
   <v>       0.00000000       0.00000000       0.00000000 </v>
   <v>       0.01121411       0.01121411       0.00000000 </v>
   <v>       0.02242822       0.02242822       0.00000000 </v>
   <v>       0.03364233       0.03364233       0.00000000 </v>
   <v>       0.04485643       0.04485643       0.00000000 </v>
   <v>       0.05607054       0.05607054       0.00000000 </v>
   <v>       0.06728465       0.06728465       0.00000000 </v>
   <v>       0.07849876       0.07849876       0.00000000 </v>
   <v>       0.08971287       0.08971287       0.00000000 </v>
   <v>       0.10092698       0.10092698       0.00000000 </v>
   <v>       0.11214109       0.11214109       0.00000000 </v>
   <v>       0.12335519       0.12335519       0.00000000 </v>
   <v>       0.13456930       0.13456930       0.00000000 </v>
   <v>       0.14578341       0.14578341       0.00000000 </v>
   <v>       0.15699752       0.15699752       0.00000000 </v>
   <v>       0.16821163       0.16821163       0.00000000 </v>
   <v>       0.17942574       0.17942574       0.00000000 </v>
   <v>       0.19063985       0.19063985       0.00000000 </v>
   <v>       0.20185395       0.20185395       0.00000000 </v>
   <v>       0.21306806       0.21306806       0.00000000 </v>
   <v>       0.22428217       0.22428217       0.00000000 </v>
   <v>       0.23549628       0.23549628       0.00000000 </v>
   <v>       0.24671039       0.24671039       0.00000000 </v>
   <v>       0.25792450       0.25792450       0.00000000 </v>
   <v>       0.26913861       0.26913861       0.00000000 </v>
   <v>       0.28035272       0.28035272       0.00000000 </v>
   <v>       0.29156682       0.29156682       0.00000000 </v>
   <v>       0.30278093       0.30278093       0.00000000 </v>
   <v>       0.31399504       0.31399504       0.00000000 </v>
   <v>       0.32520915       0.32520915       0.00000000 </v>
   <v>       0.33642326       0.33642326       0.00000000 </v>
   <v>       0.34763737       0.34763737       0.00000000 </v>
   <v>       0.35885148       0.35885148       0.00000000 </v>
   <v>       0.37006558       0.37006558       0.00000000 </v>
   <v>       0.38127969       0.38127969       0.00000000 </v>
   <v>      -0.38127969       0.61872031       0.00000000 </v>
   <v>      -0.39447084       0.60552916       0.00000000 </v>
   <v>      -0.40766198       0.59233802       0.00000000 </v>
   <v>      -0.42085313       0.57914687       0.00000000 </v>
   <v>      -0.43404427       0.56595573       0.00000000 </v>
   <v>      -0.44723542       0.55276458       0.00000000 </v>
   <v>      -0.46042656       0.53957344       0.00000000 </v>
   <v>      -0.47361771       0.52638229       0.00000000 </v>
   <v>      -0.48680885       0.51319115       0.00000000 </v>
   <v>      -0.50000000       0.50000000       0.00000000 </v>
   <v>      -0.48437500       0.48437500       0.00000000 </v>
   <v>      -0.46875000       0.46875000       0.00000000 </v>
   <v>      -0.45312500       0.45312500       0.00000000 </v>
   <v>      -0.43750000       0.43750000       0.00000000 </v>
   <v>      -0.42187500       0.42187500       0.00000000 </v>
   <v>      -0.40625000       0.40625000       0.00000000 </v>
   <v>      -0.39062500       0.39062500       0.00000000 </v>
   <v>      -0.37500000       0.37500000       0.00000000 </v>
   <v>      -0.35937500       0.35937500       0.00000000 </v>
   <v>      -0.34375000       0.34375000       0.00000000 </v>
   <v>      -0.32812500       0.32812500       0.00000000 </v>
   <v>      -0.31250000       0.31250000       0.00000000 </v>
   <v>      -0.29687500       0.29687500       0.00000000 </v>
   <v>      -0.28125000       0.28125000       0.00000000 </v>
   <v>      -0.26562500       0.26562500       0.00000000 </v>
   <v>      -0.25000000       0.25000000       0.00000000 </v>
   <v>      -0.23437500       0.23437500       0.00000000 </v>
   <v>      -0.21875000       0.21875000       0.00000000 </v>
   <v>      -0.20312500       0.20312500       0.00000000 </v>
   <v>      -0.18750000       0.18750000       0.00000000 </v>
   <v>      -0.17187500       0.17187500       0.00000000 </v>
   <v>      -0.15625000       0.15625000       0.00000000 </v>
   <v>      -0.14062500       0.14062500       0.00000000 </v>
   <v>      -0.12500000       0.12500000       0.00000000 </v>
   <v>      -0.10937500       0.10937500       0.00000000 </v>
   <v>      -0.09375000       0.09375000       0.00000000 </v>
   <v>      -0.07812500       0.07812500       0.00000000 </v>
   <v>      -0.06250000       0.06250000       0.00000000 </v>
   <v>      -0.04687500       0.04687500       0.00000000 </v>
   <v>      -0.03125000       0.03125000       0.00000000 </v>
   <v>      -0.01562500       0.01562500       0.00000000 </v>
   <v>       0.00000000       0.00000000       0.00000000 </v>
   <v>      -0.01724138       0.01724138       0.01724138 </v>
   <v>      -0.03448276       0.03448276       0.03448276 </v>
   <v>      -0.05172414       0.05172414       0.05172414 </v>
   <v>      -0.06896552       0.06896552       0.06896552 </v>
   <v>      -0.08620690       0.08620690       0.08620690 </v>
   <v>      -0.10344828       0.10344828       0.10344828 </v>
   <v>      -0.12068966       0.12068966       0.12068966 </v>
   <v>      -0.13793103       0.13793103       0.13793103 </v>
   <v>      -0.15517241       0.15517241       0.15517241 </v>
   <v>      -0.17241379       0.17241379       0.17241379 </v>
   <v>      -0.18965517       0.18965517       0.18965517 </v>
   <v>      -0.20689655       0.20689655       0.20689655 </v>
   <v>      -0.22413793       0.22413793       0.22413793 </v>
   <v>      -0.24137931       0.24137931       0.24137931 </v>
   <v>      -0.25862069       0.25862069       0.25862069 </v>
   <v>      -0.27586207       0.27586207       0.27586207 </v>
   <v>      -0.29310345       0.29310345       0.29310345 </v>
   <v>      -0.31034483       0.31034483       0.31034483 </v>
   <v>      -0.32758621       0.32758621       0.32758621 </v>
   <v>      -0.34482759       0.34482759       0.34482759 </v>
   <v>      -0.36206897       0.36206897       0.36206897 </v>
   <v>      -0.37931034       0.37931034       0.37931034 </v>
   <v>      -0.39655172       0.39655172       0.39655172 </v>
   <v>      -0.41379310       0.41379310       0.41379310 </v>
   <v>      -0.43103448       0.43103448       0.43103448 </v>
   <v>      -0.44827586       0.44827586       0.44827586 </v>
   <v>      -0.46551724       0.46551724       0.46551724 </v>
   <v>      -0.48275862       0.48275862       0.48275862 </v>
   <v>      -0.50000000       0.50000000       0.50000000 </v>
   <v>      -0.48812800       0.51187200       0.50000000 </v>
   <v>      -0.47625601       0.52374399       0.50000000 </v>
   <v>      -0.46438401       0.53561599       0.50000000 </v>
   <v>      -0.45251201       0.54748799       0.50000000 </v>
   <v>      -0.44064001       0.55935998       0.50000000 </v>
   <v>      -0.42876802       0.57123198       0.50000000 </v>
   <v>      -0.41689602       0.58310398       0.50000000 </v>
   <v>      -0.40502402       0.59497598       0.50000000 </v>
   <v>      -0.39315203       0.60684797       0.50000000 </v>
   <v>      -0.38128003       0.61871997       0.50000000 </v>
   <v>      -0.36940803       0.63059197       0.50000000 </v>
   <v>      -0.35753604       0.64246396       0.50000000 </v>
   <v>      -0.34566404       0.65433596       0.50000000 </v>
   <v>      -0.33379204       0.66620796       0.50000000 </v>
   <v>      -0.32192004       0.67807996       0.50000000 </v>
   <v>      -0.31004805       0.68995195       0.50000000 </v>
   <v>      -0.29817605       0.70182395       0.50000000 </v>
   <v>      -0.28630405       0.71369595       0.50000000 </v>
   <v>      -0.27443206       0.72556794       0.50000000 </v>
   <v>      -0.26256006       0.73743994       0.50000000 </v>
   <v>       0.26256006       0.26256006       0.50000000 </v>
   <v>       0.25114441       0.25114441       0.50000000 </v>
   <v>       0.23972875       0.23972875       0.50000000 </v>
   <v>       0.22831310       0.22831310       0.50000000 </v>
   <v>       0.21689744       0.21689744       0.50000000 </v>
   <v>       0.20548179       0.20548179       0.50000000 </v>
   <v>       0.19406613       0.19406613       0.50000000 </v>
   <v>       0.18265048       0.18265048       0.50000000 </v>
   <v>       0.17123482       0.17123482       0.50000000 </v>
   <v>       0.15981917       0.15981917       0.50000000 </v>
   <v>       0.14840351       0.14840351       0.50000000 </v>
   <v>       0.13698786       0.13698786       0.50000000 </v>
   <v>       0.12557220       0.12557220       0.50000000 </v>
   <v>       0.11415655       0.11415655       0.50000000 </v>
   <v>       0.10274089       0.10274089       0.50000000 </v>
   <v>       0.09132524       0.09132524       0.50000000 </v>
   <v>       0.07990958       0.07990958       0.50000000 </v>
   <v>       0.06849393       0.06849393       0.50000000 </v>
   <v>       0.05707827       0.05707827       0.50000000 </v>
   <v>       0.04566262       0.04566262       0.50000000 </v>
   <v>       0.03424696       0.03424696       0.50000000 </v>
   <v>       0.02283131       0.02283131       0.50000000 </v>
   <v>       0.01141565       0.01141565       0.50000000 </v>
   <v>       0.00000000       0.00000000       0.50000000 </v>
   <v>       0.00000000       0.00000000       0.48148148 </v>
   <v>       0.00000000       0.00000000       0.46296296 </v>
   <v>       0.00000000       0.00000000       0.44444444 </v>
   <v>       0.00000000       0.00000000       0.42592593 </v>
   <v>       0.00000000       0.00000000       0.40740741 </v>
   <v>       0.00000000       0.00000000       0.38888889 </v>
   <v>       0.00000000       0.00000000       0.37037037 </v>
   <v>       0.00000000       0.00000000       0.35185185 </v>
   <v>       0.00000000       0.00000000       0.33333333 </v>
   <v>       0.00000000       0.00000000       0.31481481 </v>
   <v>       0.00000000       0.00000000       0.29629630 </v>
   <v>       0.00000000       0.00000000       0.27777778 </v>
   <v>       0.00000000       0.00000000       0.25925926 </v>
   <v>       0.00000000       0.00000000       0.24074074 </v>
   <v>       0.00000000       0.00000000       0.22222222 </v>
   <v>       0.00000000       0.00000000       0.20370370 </v>
   <v>       0.00000000       0.00000000       0.18518519 </v>
   <v>       0.00000000       0.00000000       0.16666667 </v>
   <v>       0.00000000       0.00000000       0.14814815 </v>
   <v>       0.00000000       0.00000000       0.12962963 </v>
   <v>       0.00000000       0.00000000       0.11111111 </v>
   <v>       0.00000000       0.00000000       0.09259259 </v>
   <v>       0.00000000       0.00000000       0.07407407 </v>
   <v>       0.00000000       0.00000000       0.05555556 </v>
   <v>       0.00000000       0.00000000       0.03703704 </v>
   <v>       0.00000000       0.00000000       0.01851852 </v>
   <v>       0.00000000       0.00000000       0.00000000 </v>
   <v>       0.00000000       0.50000000       0.50000000 </v>
   <v>       0.00000000       0.48437500       0.48437500 </v>
   <v>       0.00000000       0.46875000       0.46875000 </v>
   <v>       0.00000000       0.45312500       0.45312500 </v>
   <v>       0.00000000       0.43750000       0.43750000 </v>
   <v>       0.00000000       0.42187500       0.42187500 </v>
   <v>       0.00000000       0.40625000       0.40625000 </v>
   <v>       0.00000000       0.39062500       0.39062500 </v>
   <v>       0.00000000       0.37500000       0.37500000 </v>
   <v>       0.00000000       0.35937500       0.35937500 </v>
   <v>       0.00000000       0.34375000       0.34375000 </v>
   <v>       0.00000000       0.32812500       0.32812500 </v>
   <v>       0.00000000       0.31250000       0.31250000 </v>
   <v>       0.00000000       0.29687500       0.29687500 </v>
   <v>       0.00000000       0.28125000       0.28125000 </v>
   <v>       0.00000000       0.26562500       0.26562500 </v>
   <v>       0.00000000       0.25000000       0.25000000 </v>
   <v>       0.00000000       0.23437500       0.23437500 </v>
   <v>       0.00000000       0.21875000       0.21875000 </v>
   <v>       0.00000000       0.20312500       0.20312500 </v>
   <v>       0.00000000       0.18750000       0.18750000 </v>
   <v>       0.00000000       0.17187500       0.17187500 </v>
   <v>       0.00000000       0.15625000       0.15625000 </v>
   <v>       0.00000000       0.14062500       0.14062500 </v>
   <v>       0.00000000       0.12500000       0.12500000 </v>
   <v>       0.00000000       0.10937500       0.10937500 </v>
   <v>       0.00000000       0.09375000       0.09375000 </v>
   <v>       0.00000000       0.07812500       0.07812500 </v>
   <v>       0.00000000       0.06250000       0.06250000 </v>
   <v>       0.00000000       0.04687500       0.04687500 </v>
   <v>       0.00000000       0.03125000       0.03125000 </v>
   <v>       0.00000000       0.01562500       0.01562500 </v>
   <v>       0.00000000       0.00000000       0.00000000 </v>
   <v>       0.00000000       0.01851852       0.00000000 </v>
   <v>       0.00000000       0.03703704       0.00000000 </v>
   <v>       0.00000000       0.05555556       0.00000000 </v>
   <v>       0.00000000       0.07407407       0.00000000 </v>
   <v>       0.00000000       0.09259259       0.00000000 </v>
   <v>       0.00000000       0.11111111       0.00000000 </v>
   <v>       0.00000000       0.12962963       0.00000000 </v>
   <v>       0.00000000       0.14814815       0.00000000 </v>
   <v>       0.00000000       0.16666667       0.00000000 </v>
   <v>       0.00000000       0.18518519       0.00000000 </v>
   <v>       0.00000000       0.20370370       0.00000000 </v>
   <v>       0.00000000       0.22222222       0.00000000 </v>
   <v>       0.00000000       0.24074074       0.00000000 </v>
   <v>       0.00000000       0.25925926       0.00000000 </v>
   <v>       0.00000000       0.27777778       0.00000000 </v>
   <v>       0.00000000       0.29629630       0.00000000 </v>
   <v>       0.00000000       0.31481481       0.00000000 </v>
   <v>       0.00000000       0.33333333       0.00000000 </v>
   <v>       0.00000000       0.35185185       0.00000000 </v>
   <v>       0.00000000       0.37037037       0.00000000 </v>
   <v>       0.00000000       0.38888889       0.00000000 </v>
   <v>       0.00000000       0.40740741       0.00000000 </v>
   <v>       0.00000000       0.42592593       0.00000000 </v>
   <v>       0.00000000       0.44444444       0.00000000 </v>
   <v>       0.00000000       0.46296296       0.00000000 </v>
   <v>       0.00000000       0.48148148       0.00000000 </v>
   <v>       0.00000000       0.50000000       0.00000000 </v>
  </varray>
  <varray name="weights" >
   <v>       0.00195313 </v>
   <v>       0.01171875 </v>
   <v>       0.01171875 </v>
   <v>       0.01171875 </v>
   <v>       0.00585938 </v>
   <v>       0.01171875 </v>
   <v>       0.02343750 </v>
   <v>       0.02343750 </v>
   <v>       0.02343750 </v>
   <v>       0.02343750 </v>
   <v>       0.02343750 </v>
   <v>       0.01171875 </v>
   <v>       0.01171875 </v>
   <v>       0.02343750 </v>
   <v>       0.02343750 </v>
   <v>       0.02343750 </v>
   <v>       0.01171875 </v>
   <v>       0.01171875 </v>
   <v>       0.02343750 </v>
   <v>       0.01171875 </v>
   <v>       0.00585938 </v>
   <v>       0.01171875 </v>
   <v>       0.01171875 </v>
   <v>       0.01171875 </v>
   <v>       0.01171875 </v>
   <v>       0.01171875 </v>
   <v>       0.01171875 </v>
   <v>       0.00390625 </v>
   <v>       0.02343750 </v>
   <v>       0.02343750 </v>
   <v>       0.02343750 </v>
   <v>       0.02343750 </v>
   <v>       0.02343750 </v>
   <v>       0.01171875 </v>
   <v>       0.02343750 </v>
   <v>       0.02343750 </v>
   <v>       0.02343750 </v>
   <v>       0.02343750 </v>
   <v>       0.01171875 </v>
   <v>       0.01171875 </v>
   <v>       0.02343750 </v>
   <v>       0.02343750 </v>
   <v>       0.01171875 </v>
   <v>       0.02343750 </v>
   <v>       0.01171875 </v>
   <v>       0.01171875 </v>
   <v>       0.01171875 </v>
   <v>       0.01171875 </v>
   <v>       0.01171875 </v>
   <v>       0.01171875 </v>
   <v>       0.00390625 </v>
   <v>       0.02343750 </v>
   <v>       0.02343750 </v>
   <v>       0.02343750 </v>
   <v>       0.01171875 </v>
   <v>       0.01171875 </v>
   <v>       0.02343750 </v>
   <v>       0.01171875 </v>
   <v>       0.01171875 </v>
   <v>       0.01171875 </v>
   <v>       0.01171875 </v>
   <v>       0.00390625 </v>
   <v>       0.01171875 </v>
   <v>       0.01171875 </v>
   <v>       0.00195313 </v>
   <v>       0.00000000 </v>
   <v>       0.00000000 </v>
   <v>       0.00000000 </v>
   <v>       0.00000000 </v>
   <v>       0.00000000 </v>
   <v>       0.00000000 </v>
   <v>       0.00000000 </v>
   <v>       0.00000000 </v>
   <v>       0.00000000 </v>
   <v>       0.00000000 </v>
   <v>       0.00000000 </v>
   <v>       0.00000000 </v>
   <v>       0.00000000 </v>
   <v>       0.00000000 </v>
   <v>       0.00000000 </v>
   <v>       0.00000000 </v>
   <v>       0.00000000 </v>
   <v>       0.00000000 </v>
   <v>       0.00000000 </v>
   <v>       0.00000000 </v>
   <v>       0.00000000 </v>
   <v>       0.00000000 </v>
   <v>       0.00000000 </v>
   <v>       0.00000000 </v>
   <v>       0.00000000 </v>
   <v>       0.00000000 </v>
   <v>       0.00000000 </v>
   <v>       0.00000000 </v>
   <v>       0.00000000 </v>
   <v>       0.00000000 </v>
   <v>       0.00000000 </v>
   <v>       0.00000000 </v>
   <v>       0.00000000 </v>
   <v>       0.00000000 </v>
   <v>       0.00000000 </v>
   <v>       0.00000000 </v>
   <v>       0.00000000 </v>
   <v>       0.00000000 </v>
   <v>       0.00000000 </v>
   <v>       0.00000000 </v>
   <v>       0.00000000 </v>
   <v>       0.00000000 </v>
   <v>       0.00000000 </v>
   <v>       0.00000000 </v>
   <v>       0.00000000 </v>
   <v>       0.00000000 </v>
   <v>       0.00000000 </v>
   <v>       0.00000000 </v>
   <v>       0.00000000 </v>
   <v>       0.00000000 </v>
   <v>       0.00000000 </v>
   <v>       0.00000000 </v>
   <v>       0.00000000 </v>
   <v>       0.00000000 </v>
   <v>       0.00000000 </v>
   <v>       0.00000000 </v>
   <v>       0.00000000 </v>
   <v>       0.00000000 </v>
   <v>       0.00000000 </v>
   <v>       0.00000000 </v>
   <v>       0.00000000 </v>
   <v>       0.00000000 </v>
   <v>       0.00000000 </v>
   <v>       0.00000000 </v>
   <v>       0.00000000 </v>
   <v>       0.00000000 </v>
   <v>       0.00000000 </v>
   <v>       0.00000000 </v>
   <v>       0.00000000 </v>
   <v>       0.00000000 </v>
   <v>       0.00000000 </v>
   <v>       0.00000000 </v>
   <v>       0.00000000 </v>
   <v>       0.00000000 </v>
   <v>       0.00000000 </v>
   <v>       0.00000000 </v>
   <v>       0.00000000 </v>
   <v>       0.00000000 </v>
   <v>       0.00000000 </v>
   <v>       0.00000000 </v>
   <v>       0.00000000 </v>
   <v>       0.00000000 </v>
   <v>       0.00000000 </v>
   <v>       0.00000000 </v>
   <v>       0.00000000 </v>
   <v>       0.00000000 </v>
   <v>       0.00000000 </v>
   <v>       0.00000000 </v>
   <v>       0.00000000 </v>
   <v>       0.00000000 </v>
   <v>       0.00000000 </v>
   <v>       0.00000000 </v>
   <v>       0.00000000 </v>
   <v>       0.00000000 </v>
   <v>       0.00000000 </v>
   <v>       0.00000000 </v>
   <v>       0.00000000 </v>
   <v>       0.00000000 </v>
   <v>       0.00000000 </v>
   <v>       0.00000000 </v>
   <v>       0.00000000 </v>
   <v>       0.00000000 </v>
   <v>       0.00000000 </v>
   <v>       0.00000000 </v>
   <v>       0.00000000 </v>
   <v>       0.00000000 </v>
   <v>       0.00000000 </v>
   <v>       0.00000000 </v>
   <v>       0.00000000 </v>
   <v>       0.00000000 </v>
   <v>       0.00000000 </v>
   <v>       0.00000000 </v>
   <v>       0.00000000 </v>
   <v>       0.00000000 </v>
   <v>       0.00000000 </v>
   <v>       0.00000000 </v>
   <v>       0.00000000 </v>
   <v>       0.00000000 </v>
   <v>       0.00000000 </v>
   <v>       0.00000000 </v>
   <v>       0.00000000 </v>
   <v>       0.00000000 </v>
   <v>       0.00000000 </v>
   <v>       0.00000000 </v>
   <v>       0.00000000 </v>
   <v>       0.00000000 </v>
   <v>       0.00000000 </v>
   <v>       0.00000000 </v>
   <v>       0.00000000 </v>
   <v>       0.00000000 </v>
   <v>       0.00000000 </v>
   <v>       0.00000000 </v>
   <v>       0.00000000 </v>
   <v>       0.00000000 </v>
   <v>       0.00000000 </v>
   <v>       0.00000000 </v>
   <v>       0.00000000 </v>
   <v>       0.00000000 </v>
   <v>       0.00000000 </v>
   <v>       0.00000000 </v>
   <v>       0.00000000 </v>
   <v>       0.00000000 </v>
   <v>       0.00000000 </v>
   <v>       0.00000000 </v>
   <v>       0.00000000 </v>
   <v>       0.00000000 </v>
   <v>       0.00000000 </v>
   <v>       0.00000000 </v>
   <v>       0.00000000 </v>
   <v>       0.00000000 </v>
   <v>       0.00000000 </v>
   <v>       0.00000000 </v>
   <v>       0.00000000 </v>
   <v>       0.00000000 </v>
   <v>       0.00000000 </v>
   <v>       0.00000000 </v>
   <v>       0.00000000 </v>
   <v>       0.00000000 </v>
   <v>       0.00000000 </v>
   <v>       0.00000000 </v>
   <v>       0.00000000 </v>
   <v>       0.00000000 </v>
   <v>       0.00000000 </v>
   <v>       0.00000000 </v>
   <v>       0.00000000 </v>
   <v>       0.00000000 </v>
   <v>       0.00000000 </v>
   <v>       0.00000000 </v>
   <v>       0.00000000 </v>
   <v>       0.00000000 </v>
   <v>       0.00000000 </v>
   <v>       0.00000000 </v>
   <v>       0.00000000 </v>
   <v>       0.00000000 </v>
   <v>       0.00000000 </v>
   <v>       0.00000000 </v>
   <v>       0.00000000 </v>
   <v>       0.00000000 </v>
   <v>       0.00000000 </v>
   <v>       0.00000000 </v>
   <v>       0.00000000 </v>
   <v>       0.00000000 </v>
   <v>       0.00000000 </v>
   <v>       0.00000000 </v>
   <v>       0.00000000 </v>
   <v>       0.00000000 </v>
   <v>       0.00000000 </v>
   <v>       0.00000000 </v>
   <v>       0.00000000 </v>
   <v>       0.00000000 </v>
   <v>       0.00000000 </v>
   <v>       0.00000000 </v>
   <v>       0.00000000 </v>
   <v>       0.00000000 </v>
   <v>       0.00000000 </v>
   <v>       0.00000000 </v>
   <v>       0.00000000 </v>
   <v>       0.00000000 </v>
   <v>       0.00000000 </v>
   <v>       0.00000000 </v>
   <v>       0.00000000 </v>
   <v>       0.00000000 </v>
   <v>       0.00000000 </v>
   <v>       0.00000000 </v>
   <v>       0.00000000 </v>
   <v>       0.00000000 </v>
   <v>       0.00000000 </v>
   <v>       0.00000000 </v>
   <v>       0.00000000 </v>
   <v>       0.00000000 </v>
   <v>       0.00000000 </v>
   <v>       0.00000000 </v>
   <v>       0.00000000 </v>
   <v>       0.00000000 </v>
   <v>       0.00000000 </v>
   <v>       0.00000000 </v>
   <v>       0.00000000 </v>
   <v>       0.00000000 </v>
   <v>       0.00000000 </v>
   <v>       0.00000000 </v>
   <v>       0.00000000 </v>
   <v>       0.00000000 </v>
   <v>       0.00000000 </v>
   <v>       0.00000000 </v>
   <v>       0.00000000 </v>
   <v>       0.00000000 </v>
   <v>       0.00000000 </v>
   <v>       0.00000000 </v>
   <v>       0.00000000 </v>
   <v>       0.00000000 </v>
   <v>       0.00000000 </v>
   <v>       0.00000000 </v>
   <v>       0.00000000 </v>
   <v>       0.00000000 </v>
   <v>       0.00000000 </v>
   <v>       0.00000000 </v>
   <v>       0.00000000 </v>
  </varray>
  <kpoints_labels>
   <i name="\Gamma" type="int">      66 </i>
   <i name="C" type="int">     100 </i>
   <i name="C_2" type="int">     101 </i>
   <i name="Y_2" type="int">     110 </i>
   <i name="\Gamma" type="int">     142 </i>
   <i name="M_2" type="int">     171 </i>
   <i name="D" type="int">     191 </i>
   <i name="D_2" type="int">     192 </i>
   <i name="A" type="int">     215 </i>
   <i name="\Gamma" type="int">     242 </i>
   <i name="L_2" type="int">     243 </i>
   <i name="\Gamma" type="int">     275 </i>
   <i name="V_2" type="int">     302 </i>
  </kpoints_labels>
 </kpoints>
 <parameters>
  <separator name="general" >
   <i type="string" name="SYSTEM">Be4P3Rb</i>
   <i type="logical" name="LCOMPAT"> F  </i>
  </separator>
  <separator name="electronic" >
   <i type="string" name="PREC">accura</i>
   <i name="ENMAX">    400.00000000</i>
   <i name="ENAUG">    627.11200000</i>
   <i name="EDIFF">      0.00001000</i>
   <i type="int" name="IALGO">    38</i>
   <i type="int" name="IWAVPR">    10</i>
   <i type="int" name="NBANDS">    48</i>
   <i type="int" name="NBANDSLOW">    -1</i>
   <i type="int" name="NBANDSHIGH">    -1</i>
   <i name="NELECT">     48.00000000</i>
   <i type="int" name="TURBO">     0</i>
   <i type="int" name="IRESTART">     0</i>
   <i type="int" name="NREBOOT">     0</i>
   <i type="int" name="NMIN">     0</i>
   <i name="EREF">      0.00000000</i>
   <separator name="electronic smearing" >
    <i type="int" name="ISMEAR">     0</i>
    <i name="SIGMA">      0.01000000</i>
    <i name="KSPACING">      0.50000000</i>
    <i type="logical" name="KGAMMA"> T  </i>
    <i type="logical" name="KBLOWUP"> T  </i>
   </separator>
   <separator name="electronic projectors" >
    <i type="logical" name="LREAL"> F  </i>
    <v name="ROPT">      0.00000000      0.00000000      0.00000000</v>
    <i type="int" name="LMAXPAW">  -100</i>
    <i type="int" name="LMAXMIX">     2</i>
    <i type="logical" name="NLSPLINE"> F  </i>
   </separator>
   <separator name="electronic startup" >
    <i type="int" name="ISTART">     1</i>
    <i type="int" name="ICHARG">     0</i>
    <i type="int" name="INIWAV">     1</i>
   </separator>
   <separator name="electronic spin" >
    <i type="int" name="ISPIN">     1</i>
    <i type="logical" name="LNONCOLLINEAR"> F  </i>
    <v name="MAGMOM">      1.00000000      1.00000000      1.00000000      1.00000000      1.00000000      1.00000000      1.00000000      1.00000000      1.00000000      1.00000000      1.00000000      1.00000000      1.00000000      1.00000000      1.00000000</v>
    <i name="NUPDOWN">     -1.00000000</i>
    <i type="logical" name="LSORBIT"> F  </i>
    <v name="SAXIS">      0.00000000      0.00000000      1.00000000</v>
    <i type="logical" name="LSPIRAL"> F  </i>
    <v name="QSPIRAL">      0.00000000      0.00000000      0.00000000</v>
    <i type="logical" name="LZEROZ"> F  </i>
   </separator>
   <separator name="electronic exchange-correlation" >
    <i type="logical" name="LASPH"> F  </i>
    <i type="logical" name="LMETAGGA"> F  </i>
   </separator>
   <separator name="electronic convergence" >
    <i type="int" name="NELM">    90</i>
    <i type="int" name="NELMDL">     0</i>
    <i type="int" name="NELMIN">     2</i>
    <i name="ENINI">    400.00000000</i>
    <separator name="electronic convergence detail" >
     <i type="logical" name="LDIAG"> T  </i>
     <i type="logical" name="LSUBROT"> F  </i>
     <i name="WEIMIN">      0.00000000</i>
     <i name="EBREAK">      0.00000005</i>
     <i name="DEPER">      0.30000000</i>
     <i type="int" name="NRMM">     4</i>
     <i name="TIME">      0.40000000</i>
    </separator>
   </separator>
   <separator name="electronic mixer" >
    <i name="AMIX">      0.40000000</i>
    <i name="BMIX">      1.00000000</i>
    <i name="AMIN">      0.10000000</i>
    <i name="AMIX_MAG">      1.60000000</i>
    <i name="BMIX_MAG">      1.00000000</i>
    <separator name="electronic mixer details" >
     <i type="int" name="IMIX">     1</i>
     <i type="logical" name="MIXFIRST"> F  </i>
     <i type="int" name="MAXMIX">   -45</i>
     <i name="WC">    100.00000000</i>
     <i type="int" name="INIMIX">     1</i>
     <i type="int" name="MIXPRE">     1</i>
     <i type="int" name="MREMOVE">     5</i>
    </separator>
   </separator>
   <separator name="electronic dipolcorrection" >
    <i type="logical" name="LDIPOL"> F  </i>
    <i type="logical" name="LMONO"> F  </i>
    <i type="int" name="IDIPOL">     0</i>
    <i name="EPSILON">      1.00000000</i>
    <v name="DIPOL">   -100.00000000   -100.00000000   -100.00000000</v>
    <i name="EFIELD">      0.00000000</i>
   </separator>
  </separator>
  <separator name="grids" >
   <i type="int" name="NGX">    36</i>
   <i type="int" name="NGY">    36</i>
   <i type="int" name="NGZ">    36</i>
   <i type="int" name="NGXF">    72</i>
   <i type="int" name="NGYF">    72</i>
   <i type="int" name="NGZF">    72</i>
   <i type="logical" name="ADDGRID"> F  </i>
  </separator>
  <separator name="ionic" >
   <i type="int" name="NSW">     0</i>
   <i type="int" name="IBRION">    -1</i>
   <i type="int" name="MDALGO">     0</i>
   <i type="int" name="ISIF">     3</i>
   <i name="PSTRESS">      0.00000000</i>
   <i name="EDIFFG">     -0.01000000</i>
   <i type="int" name="NFREE">     1</i>
   <i name="POTIM">      0.50000000</i>
   <i name="SMASS">     -3.00000000</i>
   <i name="SCALEE">      1.00000000</i>
  </separator>
  <separator name="ionic md" >
   <i name="TEBEG">      0.00010000</i>
   <i name="TEEND">      0.00010000</i>
   <i type="int" name="NBLOCK">     1</i>
   <i type="int" name="KBLOCK">     1</i>
   <i type="int" name="NPACO">   256</i>
   <i name="APACO">     10.00000000</i>
  </separator>
  <separator name="symmetry" >
   <i type="int" name="ISYM">     3</i>
   <i name="SYMPREC">      0.00001000</i>
  </separator>
  <separator name="dos" >
   <i type="int" name="LORBIT">     0</i>
   <v name="RWIGS">     -1.00000000     -1.00000000     -1.00000000</v>
   <i type="int" name="NEDOS"> 10001</i>
   <i name="EMIN">     10.00000000</i>
   <i name="EMAX">    -10.00000000</i>
   <i name="EFERMI">      0.00000000</i>
  </separator>
  <separator name="writing" >
   <i type="int" name="NWRITE">     2</i>
   <i type="logical" name="LWAVE"> T  </i>
   <i type="logical" name="LDOWNSAMPLE"> F  </i>
   <i type="logical" name="LCHARG"> T  </i>
   <i type="logical" name="LPARD"> F  </i>
   <i type="logical" name="LVTOT"> F  </i>
   <i type="logical" name="LVHAR"> F  </i>
   <i type="logical" name="LELF"> F  </i>
   <i type="logical" name="LOPTICS"> F  </i>
   <v name="STM">      0.00000000      0.00000000      0.00000000      0.00000000      0.00000000      0.00000000      0.00000000</v>
  </separator>
  <separator name="performance" >
   <i type="int" name="NPAR">    24</i>
   <i type="int" name="NSIM">     4</i>
   <i type="int" name="NBLK">    -1</i>
   <i type="logical" name="LPLANE"> T  </i>
   <i type="logical" name="LSCALAPACK"> T  </i>
   <i type="logical" name="LSCAAWARE"> F  </i>
   <i type="logical" name="LSCALU"> F  </i>
   <i type="logical" name="LASYNC"> F  </i>
   <i type="logical" name="LORBITALREAL"> F  </i>
  </separator>
  <separator name="miscellaneous" >
   <i type="int" name="IDIOT">     3</i>
   <i type="int" name="PHON_NSTRUCT">    -1</i>
   <i type="logical" name="LMUSIC"> F  </i>
   <v name="POMASS">      9.01300000     10.81100000     14.00100000</v>
   <v name="DARWINR">      0.00000000      0.00000000      0.00000000</v>
   <v name="DARWINV">      1.00000000      1.00000000      1.00000000</v>
   <i type="logical" name="LCORR"> T  </i>
  </separator>
  <i type="logical" name="GGA_COMPAT"> T  </i>
  <i type="logical" name="LBERRY"> F  </i>
  <i type="int" name="ICORELEVEL">     0</i>
  <i type="logical" name="LDAU"> F  </i>
  <i type="int" name="I_CONSTRAINED_M">     0</i>
  <separator name="electronic exchange-correlation" >
   <i type="string" name="GGA">PE</i>
   <i type="int" name="VOSKOWN">     0</i>
   <i type="logical" name="LHFCALC"> T  </i>
   <i type="string" name="PRECFOCK">normal</i>
   <i type="logical" name="LSYMGRAD"> F  </i>
   <i type="logical" name="LHFONE"> F  </i>
   <i type="logical" name="LRHFCALC"> F  </i>
   <i type="logical" name="LTHOMAS"> F  </i>
   <i type="logical" name="LMODELHF"> F  </i>
   <i type="logical" name="LFOCKACE"> T  </i>
   <i name="ENCUT4O">     -1.00000000</i>
   <i type="int" name="EXXOEP">     0</i>
   <i type="int" name="FOURORBIT">     0</i>
   <i name="AEXX">      0.25000000</i>
   <i name="HFALPHA">     -1.00000000</i>
   <i name="MCALPHA">      0.00000000</i>
   <i name="ALDAX">      0.75000000</i>
   <i name="AGGAX">      0.75000000</i>
   <i name="ALDAC">      1.00000000</i>
   <i name="AGGAC">      1.00000000</i>
   <i type="int" name="NKREDX">     1</i>
   <i type="int" name="NKREDY">     1</i>
   <i type="int" name="NKREDZ">     1</i>
   <i type="logical" name="SHIFTRED"> F  </i>
   <i type="logical" name="ODDONLY"> F  </i>
   <i type="logical" name="EVENONLY"> F  </i>
   <i type="int" name="LMAXFOCK">     4</i>
   <i type="int" name="NMAXFOCKAE">     1</i>
   <i type="logical" name="LFOCKAEDFT"> F  </i>
   <i name="HFSCREEN">      0.20000000</i>
   <i name="HFSCREENC">      0.20000000</i>
   <i type="int" name="NBANDSGWLOW">     1</i>
  </separator>
  <separator name="vdW DFT" >
   <i type="logical" name="LUSE_VDW"> F  </i>
   <i name="Zab_VDW">     -0.84910000</i>
   <i name="PARAM1">      0.12340000</i>
   <i name="PARAM2">      1.00000000</i>
   <i name="PARAM3">      0.00000000</i>
  </separator>
  <separator name="model GW" >
   <i type="int" name="MODEL_GW">     0</i>
   <i name="MODEL_EPS0">      4.27973925</i>
   <i name="MODEL_ALPHA">      1.00000000</i>
  </separator>
  <separator name="linear response parameters" >
   <i type="logical" name="LEPSILON"> F  </i>
   <i type="logical" name="LRPA"> F  </i>
   <i type="logical" name="LNABLA"> F  </i>
   <i type="logical" name="LVEL"> F  </i>
   <i name="CSHIFT">      0.10000000</i>
   <i name="OMEGAMAX">     -1.00000000</i>
   <i name="DEG_THRESHOLD">      0.00200000</i>
   <i name="RTIME">     -0.10000000</i>
   <i name="WPLASMAI">      0.00000000</i>
   <v name="DFIELD">      0.00000000      0.00000000      0.00000000</v>
   <v name="WPLASMA">      0.00000000      0.00000000      0.00000000      0.00000000      0.00000000      0.00000000      0.00000000      0.00000000      0.00000000</v>
  </separator>
  <separator name="orbital magnetization" >
   <i type="logical" name="NUCIND"> F  </i>
   <v name="MAGPOS">      0.00000000      0.00000000      0.00000000</v>
   <i type="logical" name="LNICSALL"> T  </i>
   <i type="logical" name="ORBITALMAG"> F  </i>
   <i type="logical" name="LMAGBLOCH"> F  </i>
   <i type="logical" name="LCHIMAG"> F  </i>
   <i type="logical" name="LGAUGE"> T  </i>
   <i type="int" name="MAGATOM">     0</i>
   <v name="MAGDIPOL">      0.00000000      0.00000000      0.00000000</v>
   <v name="AVECCONST">      0.00000000      0.00000000      0.00000000</v>
  </separator>
  <separator name="response functions" >
   <i type="logical" name="LFINITE_TEMPERATURE"> F  </i>
   <i type="logical" name="LADDER"> F  </i>
   <i type="logical" name="LRPAFORCE"> F  </i>
   <i type="logical" name="LFXC"> F  </i>
   <i type="logical" name="LHARTREE"> T  </i>
   <i type="int" name="IBSE">     0</i>
   <v type="int" name="KPOINT">    -1     0     0     0</v>
   <i type="logical" name="LTCTC"> F  </i>
   <i type="logical" name="LTCTE"> F  </i>
   <i type="logical" name="LTETE"> F  </i>
   <i type="logical" name="LTRIPLET"> F  </i>
   <i type="logical" name="LFXCEPS"> F  </i>
   <i type="logical" name="LFXHEG"> F  </i>
   <i type="int" name="NATURALO">     2</i>
   <i type="logical" name="LHOLEGF"> F  </i>
   <i type="logical" name="L2ORDER"> F  </i>
   <i type="logical" name="LDMP1"> F  </i>
   <i type="logical" name="LMP2LT"> F  </i>
   <i type="logical" name="LSMP2LT"> F  </i>
   <i type="logical" name="LGWLF"> F  </i>
   <i name="ENCUTGW">     -2.00000000</i>
   <i name="ENCUTGWSOFT">     -2.00000000</i>
   <i name="ENCUTLF">     -1.00000000</i>
   <i type="logical" name="LESF_SPLINES"> F  </i>
   <i type="int" name="LMAXMP2">    -1</i>
   <i name="SCISSOR">      0.00000000</i>
   <i type="int" name="NOMEGA">     0</i>
   <i type="int" name="NOMEGAR">     0</i>
   <i type="int" name="NBANDSGW">    -1</i>
   <i type="int" name="NBANDSO">    -1</i>
   <i type="int" name="NBANDSV">    -1</i>
   <i type="int" name="NELMGW">     1</i>
   <i type="int" name="NELMHF">     1</i>
   <i type="int" name="DIM">     3</i>
   <i type="int" name="IESPILON">     4</i>
   <i type="int" name="ANTIRES">     0</i>
   <i name="OMEGAMAX">    -30.00000000</i>
   <i name="OMEGAMIN">    -30.00000000</i>
   <i name="OMEGATL">   -200.00000000</i>
   <i type="int" name="OMEGAGRID">     0</i>
   <i name="CSHIFT">     -0.10000000</i>
   <i type="logical" name="LSELFENERGY"> F  </i>
   <i type="logical" name="LSPECTRAL"> F  </i>
   <i type="logical" name="LSPECTRALGW"> F  </i>
   <i type="logical" name="LSINGLES"> F  </i>
   <i type="logical" name="LFERMIGW"> F  </i>
   <i type="logical" name="ODDONLYGW"> F  </i>
   <i type="logical" name="EVENONLYGW"> F  </i>
   <i type="int" name="NKREDLFX">     1</i>
   <i type="int" name="NKREDLFY">     1</i>
   <i type="int" name="NKREDLFZ">     1</i>
   <i type="int" name="MAXMEM">  2800</i>
   <i type="int" name="TELESCOPE">     0</i>
   <i type="int" name="NTAUPAR">    -1</i>
   <i type="int" name="NOMEGAPAR">    -1</i>
   <i name="DAMP_NEWTON">      0.80000001</i>
   <i name="LAMBDA">      1.00000000</i>
  </separator>
  <separator name="External order field" >
   <i name="OFIELD_KAPPA">      0.00000000</i>
   <v name="OFIELD_K">      0.00000000      0.00000000      0.00000000</v>
   <i name="OFIELD_Q6_NEAR">      0.00000000</i>
   <i name="OFIELD_Q6_FAR">      0.00000000</i>
   <i name="OFIELD_A">      0.00000000</i>
  </separator>
  <separator name="optional k-points parameters" >
   <i type="int" name="KPOINTS_OPT_MODE">     1</i>
   <i type="logical" name="LKPOINTS_OPT"> F  </i>
  </separator>
 </parameters>
 <atominfo>
  <atoms>      15 </atoms>
  <types>       3 </types>
  <array name="atoms" >
   <dimension dim="1">ion</dimension>
   <field type="string">element</field>
   <field type="int">atomtype</field>
   <set>
    <rc><c>Be</c><c>   1</c></rc>
    <rc><c>B </c><c>   2</c></rc>
    <rc><c>B </c><c>   2</c></rc>
    <rc><c>B </c><c>   2</c></rc>
    <rc><c>B </c><c>   2</c></rc>
    <rc><c>B </c><c>   2</c></rc>
    <rc><c>B </c><c>   2</c></rc>
    <rc><c>B </c><c>   2</c></rc>
    <rc><c>B </c><c>   2</c></rc>
    <rc><c>B </c><c>   2</c></rc>
    <rc><c>B </c><c>   2</c></rc>
    <rc><c>B </c><c>   2</c></rc>
    <rc><c>B </c><c>   2</c></rc>
    <rc><c>N </c><c>   3</c></rc>
    <rc><c>N </c><c>   3</c></rc>
   </set>
  </array>
  <array name="atomtypes" >
   <dimension dim="1">type</dimension>
   <field type="int">atomspertype</field>
   <field type="string">element</field>
   <field>mass</field>
   <field>valence</field>
   <field type="string">pseudopotential</field>
   <set>
    <rc><c>   1</c><c>Be</c><c>      9.01300000</c><c>      2.00000000</c><c>  PAW_PBE Be 06Sep2000                  </c></rc>
    <rc><c>  12</c><c>B </c><c>     10.81100000</c><c>      3.00000000</c><c>  PAW_PBE B 06Sep2000                   </c></rc>
    <rc><c>   2</c><c>N </c><c>     14.00100000</c><c>      5.00000000</c><c>  PAW_PBE N 08Apr2002                   </c></rc>
   </set>
  </array>
 </atominfo>
 <structure name="initialpos" >
  <crystal>
   <varray name="basis" >
    <v>       5.21128944      -0.00183198      -0.00132293 </v>
    <v>      -2.35472141       4.64895989       0.00132293 </v>
    <v>      -2.35471712       1.44743372       4.41788713 </v>
   </varray>
   <i name="volume">    106.99348123 </i>
   <varray name="rec_basis" >
    <v>       0.19194314       0.09720011       0.07045927 </v>
    <v>       0.00005775       0.21515118      -0.07045927 </v>
    <v>       0.00005746      -0.00003532       0.22639474 </v>
   </varray>
  </crystal>
  <varray name="positions" >
   <v>       0.49999994       0.49999994       0.50000000 </v>
   <v>       0.66934316       0.00325553       0.00325509 </v>
   <v>       0.99674570       0.33065808       0.00325535 </v>
   <v>       0.32396096       0.19732857       0.19732731 </v>
   <v>       0.80267307       0.67604060       0.19732743 </v>
   <v>       0.19732817       0.80267348       0.32396087 </v>
   <v>       0.99674512       0.00325603       0.33065728 </v>
   <v>       0.00325603       0.99674512       0.66934272 </v>
   <v>       0.80267348       0.19732817       0.67603913 </v>
   <v>       0.19732857       0.32396096       0.80267269 </v>
   <v>       0.67604060       0.80267307       0.80267257 </v>
   <v>       0.00325553       0.66934316       0.99674491 </v>
   <v>       0.33065808       0.99674570       0.99674465 </v>
   <v>       0.62342718       0.37657444       0.37657565 </v>
   <v>       0.37657444       0.62342718       0.62342435 </v>
  </varray>
 </structure>
 <calculation>
  <scstep>
   <time name="dav">  241.16  217.75</time>
   <time name="total">  242.49  219.41</time>
   <energy>
    <i name="alphaZ">    146.70650736 </i>
    <i name="ewald">  -1489.51874320 </i>
    <i name="hartreedc">   -267.23263022 </i>
    <i name="XCdc">    104.79930735 </i>
    <i name="pawpsdc">   5141.61549987 </i>
    <i name="pawaedc">  -5135.04525489 </i>
    <i name="eentropy">     -0.00000000 </i>
    <i name="bandstr">   -112.93174363 </i>
    <i name="atom">   1394.32770739 </i>
    <i name="e_fr_energy">   -120.73027744 </i>
    <i name="e_wo_entrp">   -120.73027744 </i>
    <i name="e_0_energy">   -120.73027744 </i>
   </energy>
  </scstep>
  <scstep>
   <time name="dav">  244.35  219.53</time>
   <time name="total">  244.80  219.97</time>
   <energy>
    <i name="e_fr_energy">   -120.72841402 </i>
    <i name="e_wo_entrp">   -120.72841402 </i>
    <i name="e_0_energy">   -120.72841402 </i>
   </energy>
  </scstep>
  <scstep>
   <time name="dav">  239.33  216.48</time>
   <time name="total">  239.79  216.93</time>
   <energy>
    <i name="e_fr_energy">   -120.72841784 </i>
    <i name="e_wo_entrp">   -120.72841784 </i>
    <i name="e_0_energy">   -120.72841784 </i>
   </energy>
  </scstep>
  <scstep>
   <time name="dav">  242.51  218.48</time>
   <time name="total">  242.97  218.93</time>
   <energy>
    <i name="e_fr_energy">   -120.72846965 </i>
    <i name="e_wo_entrp">   -120.72846965 </i>
    <i name="e_0_energy">   -120.72846965 </i>
   </energy>
  </scstep>
  <scstep>
   <time name="dav">  240.03  217.04</time>
   <time name="total">  240.49  217.49</time>
   <energy>
    <i name="e_fr_energy">   -120.72845800 </i>
    <i name="e_wo_entrp">   -120.72845800 </i>
    <i name="e_0_energy">   -120.72845800 </i>
   </energy>
  </scstep>
  <scstep>
   <time name="dav">  236.18  214.21</time>
   <time name="total">  236.27  214.29</time>
   <energy>
    <i name="alphaZ">    146.70650736 </i>
    <i name="ewald">  -1489.51874320 </i>
    <i name="hartreedc">   -266.54729979 </i>
    <i name="XCdc">    104.76533544 </i>
    <i name="pawpsdc">   5150.04896933 </i>
    <i name="pawaedc">  -5143.46526455 </i>
    <i name="eentropy">     -0.00000000 </i>
    <i name="bandstr">   -113.56702484 </i>
    <i name="atom">   1394.32770739 </i>
    <i name="e_fr_energy">   -120.72845986 </i>
    <i name="e_wo_entrp">   -120.72845986 </i>
    <i name="e_0_energy">   -120.72845986 </i>
   </energy>
  </scstep>
  <structure>
   <crystal>
    <varray name="basis" >
     <v>       5.21128944      -0.00183198      -0.00132293 </v>
     <v>      -2.35472141       4.64895989       0.00132293 </v>
     <v>      -2.35471712       1.44743372       4.41788713 </v>
    </varray>
    <i name="volume">    106.99348123 </i>
    <varray name="rec_basis" >
     <v>       0.19194314       0.09720011       0.07045927 </v>
     <v>       0.00005775       0.21515118      -0.07045927 </v>
     <v>       0.00005746      -0.00003532       0.22639474 </v>
    </varray>
   </crystal>
   <varray name="positions" >
    <v>       0.49999994       0.49999994       0.50000000 </v>
    <v>       0.66934316       0.00325553       0.00325509 </v>
    <v>       0.99674570       0.33065808       0.00325535 </v>
    <v>       0.32396096       0.19732857       0.19732731 </v>
    <v>       0.80267307       0.67604060       0.19732743 </v>
    <v>       0.19732817       0.80267348       0.32396087 </v>
    <v>       0.99674512       0.00325603       0.33065728 </v>
    <v>       0.00325603       0.99674512       0.66934272 </v>
    <v>       0.80267348       0.19732817       0.67603913 </v>
    <v>       0.19732857       0.32396096       0.80267269 </v>
    <v>       0.67604060       0.80267307       0.80267257 </v>
    <v>       0.00325553       0.66934316       0.99674491 </v>
    <v>       0.33065808       0.99674570       0.99674465 </v>
    <v>       0.62342718       0.37657444       0.37657565 </v>
    <v>       0.37657444       0.62342718       0.62342435 </v>
   </varray>
  </structure>
  <varray name="forces" >
   <v>              NaN              NaN              NaN </v>
   <v>              NaN              NaN              NaN </v>
   <v>              NaN              NaN              NaN </v>
   <v>              NaN              NaN              NaN </v>
   <v>              NaN              NaN              NaN </v>
   <v>              NaN              NaN              NaN </v>
   <v>              NaN              NaN              NaN </v>
   <v>              NaN              NaN              NaN </v>
   <v>              NaN              NaN              NaN </v>
   <v>              NaN              NaN              NaN </v>
   <v>              NaN              NaN              NaN </v>
   <v>              NaN              NaN              NaN </v>
   <v>              NaN              NaN              NaN </v>
   <v>              NaN              NaN              NaN </v>
   <v>              NaN              NaN              NaN </v>
  </varray>
  <varray name="stress" >
   <v>              NaN              NaN              NaN </v>
   <v>              NaN              NaN              NaN </v>
   <v>              NaN              NaN              NaN </v>
  </varray>
  <energy>
   <i name="e_fr_energy">   -120.72845986 </i>
   <i name="e_wo_entrp">   -120.72845986 </i>
   <i name="e_0_energy">   -120.72845986 </i>
  </energy>
  <time name="totalsc"> 1850.19 1702.52</time>
  <eigenvalues>
   <array>
    <dimension dim="1">band</dimension>
    <dimension dim="2">kpoint</dimension>
    <dimension dim="3">spin</dimension>
    <field>eigene</field>
    <field>occ</field>
    <set>
     <set comment="spin 1">
      <set comment="kpoint 1">
       <r>  -14.6186    1.0000 </r>
       <r>  -13.4586    1.0000 </r>
       <r>  -10.3037    1.0000 </r>
       <r>   -6.5263    1.0000 </r>
       <r>   -6.5262    1.0000 </r>
       <r>   -5.8478    1.0000 </r>
       <r>   -4.9965    1.0000 </r>
       <r>   -4.9965    1.0000 </r>
       <r>   -3.1372    1.0000 </r>
       <r>   -2.7052    1.0000 </r>
       <r>   -2.7051    1.0000 </r>
       <r>   -2.0490    1.0000 </r>
       <r>   -2.0489    1.0000 </r>
       <r>   -1.7422    1.0000 </r>
       <r>   -1.0732    1.0000 </r>
       <r>    1.2563    1.0000 </r>
       <r>    1.2563    1.0000 </r>
       <r>    2.2978    1.0000 </r>
       <r>    2.7178    1.0000 </r>
       <r>    2.7467    1.0000 </r>
       <r>    2.7468    1.0000 </r>
       <r>    3.2816    1.0000 </r>
       <r>    4.4429    1.0000 </r>
       <r>    4.4430    1.0000 </r>
       <r>   11.7370    0.0000 </r>
       <r>   11.7801    0.0000 </r>
       <r>   11.7801    0.0000 </r>
       <r>   12.6367    0.0000 </r>
       <r>   12.6367    0.0000 </r>
       <r>   13.6073    0.0000 </r>
       <r>   13.7659    0.0000 </r>
       <r>   13.9934    0.0000 </r>
       <r>   13.9934    0.0000 </r>
       <r>   14.6899    0.0000 </r>
       <r>   15.4793    0.0000 </r>
       <r>   15.6907    0.0000 </r>
       <r>   15.6907    0.0000 </r>
       <r>   15.9965    0.0000 </r>
       <r>   16.2423    0.0000 </r>
       <r>   16.3236    0.0000 </r>
       <r>   16.3236    0.0000 </r>
       <r>   17.2075    0.0000 </r>
       <r>   17.2076    0.0000 </r>
       <r>   17.5873    0.0000 </r>
       <r>   17.5874    0.0000 </r>
       <r>   18.4893    0.0000 </r>
       <r>   18.8931    0.0000 </r>
       <r>   18.8932    0.0000 </r>
      </set>
      <set comment="kpoint 2">
       <r>  -14.5703    1.0000 </r>
       <r>  -13.4894    1.0000 </r>
       <r>  -10.3944    1.0000 </r>
       <r>   -6.6301    1.0000 </r>
       <r>   -6.6007    1.0000 </r>
       <r>   -5.9667    1.0000 </r>
       <r>   -4.7769    1.0000 </r>
       <r>   -4.6151    1.0000 </r>
       <r>   -3.1460    1.0000 </r>
       <r>   -3.0014    1.0000 </r>
       <r>   -2.8303    1.0000 </r>
       <r>   -2.3368    1.0000 </r>
       <r>   -1.7649    1.0000 </r>
       <r>   -1.2612    1.0000 </r>
       <r>   -0.8725    1.0000 </r>
       <r>    1.0331    1.0000 </r>
       <r>    1.3945    1.0000 </r>
       <r>    2.3480    1.0000 </r>
       <r>    2.4157    1.0000 </r>
       <r>    2.5380    1.0000 </r>
       <r>    2.8534    1.0000 </r>
       <r>    3.3358    1.0000 </r>
       <r>    4.2815    1.0000 </r>
       <r>    4.4739    1.0000 </r>
       <r>   11.5528    0.0000 </r>
       <r>   11.5950    0.0000 </r>
       <r>   11.9206    0.0000 </r>
       <r>   12.3006    0.0000 </r>
       <r>   12.6966    0.0000 </r>
       <r>   13.1836    0.0000 </r>
       <r>   13.4826    0.0000 </r>
       <r>   13.8490    0.0000 </r>
       <r>   14.5281    0.0000 </r>
       <r>   14.6151    0.0000 </r>
       <r>   15.4438    0.0000 </r>
       <r>   15.5312    0.0000 </r>
       <r>   15.7821    0.0000 </r>
       <r>   16.1185    0.0000 </r>
       <r>   16.2362    0.0000 </r>
       <r>   16.4309    0.0000 </r>
       <r>   16.5471    0.0000 </r>
       <r>   16.9714    0.0000 </r>
       <r>   17.0501    0.0000 </r>
       <r>   17.7022    0.0000 </r>
       <r>   17.9669    0.0000 </r>
       <r>   18.9608    0.0000 </r>
       <r>   19.2396    0.0000 </r>
       <r>   19.4421    0.0000 </r>
      </set>
      <set comment="kpoint 3">
       <r>  -14.4361    1.0000 </r>
       <r>  -13.5773    1.0000 </r>
       <r>  -10.6196    1.0000 </r>
       <r>   -6.8149    1.0000 </r>
       <r>   -6.6227    1.0000 </r>
       <r>   -6.1730    1.0000 </r>
       <r>   -4.3285    1.0000 </r>
       <r>   -3.9768    1.0000 </r>
       <r>   -3.3277    1.0000 </r>
       <r>   -3.2927    1.0000 </r>
       <r>   -2.9436    1.0000 </r>
       <r>   -2.1544    1.0000 </r>
       <r>   -1.4993    1.0000 </r>
       <r>   -1.2386    1.0000 </r>
       <r>   -0.2573    1.0000 </r>
       <r>    1.2812    1.0000 </r>
       <r>    1.6397    1.0000 </r>
       <r>    1.6707    1.0000 </r>
       <r>    1.7155    1.0000 </r>
       <r>    2.4095    1.0000 </r>
       <r>    3.3085    1.0000 </r>
       <r>    3.3496    1.0000 </r>
       <r>    3.8207    1.0000 </r>
       <r>    4.5262    1.0000 </r>
       <r>   10.8822    0.0000 </r>
       <r>   11.0960    0.0000 </r>
       <r>   11.2828    0.0000 </r>
       <r>   11.8102    0.0000 </r>
       <r>   13.0719    0.0000 </r>
       <r>   13.1415    0.0000 </r>
       <r>   13.3523    0.0000 </r>
       <r>   13.8379    0.0000 </r>
       <r>   14.5946    0.0000 </r>
       <r>   14.7409    0.0000 </r>
       <r>   15.0361    0.0000 </r>
       <r>   15.2610    0.0000 </r>
       <r>   15.8781    0.0000 </r>
       <r>   16.0973    0.0000 </r>
       <r>   16.3547    0.0000 </r>
       <r>   16.6766    0.0000 </r>
       <r>   17.0030    0.0000 </r>
       <r>   17.4305    0.0000 </r>
       <r>   17.6103    0.0000 </r>
       <r>   18.2811    0.0000 </r>
       <r>   18.6693    0.0000 </r>
       <r>   19.1350    0.0000 </r>
       <r>   19.6375    0.0000 </r>
       <r>   20.1550    0.0000 </r>
      </set>
      <set comment="kpoint 4">
       <r>  -14.2547    1.0000 </r>
       <r>  -13.7066    1.0000 </r>
       <r>  -10.8496    1.0000 </r>
       <r>   -6.9515    1.0000 </r>
       <r>   -6.6211    1.0000 </r>
       <r>   -6.1910    1.0000 </r>
       <r>   -4.2027    1.0000 </r>
       <r>   -4.1459    1.0000 </r>
       <r>   -3.0837    1.0000 </r>
       <r>   -3.0166    1.0000 </r>
       <r>   -2.4437    1.0000 </r>
       <r>   -1.9464    1.0000 </r>
       <r>   -1.6443    1.0000 </r>
       <r>   -1.5227    1.0000 </r>
       <r>    0.5034    1.0000 </r>
       <r>    0.8429    1.0000 </r>
       <r>    1.1190    1.0000 </r>
       <r>    1.6247    1.0000 </r>
       <r>    1.9313    1.0000 </r>
       <r>    2.5251    1.0000 </r>
       <r>    3.1268    1.0000 </r>
       <r>    3.5032    1.0000 </r>
       <r>    3.5804    1.0000 </r>
       <r>    4.5518    1.0000 </r>
       <r>   10.0331    0.0000 </r>
       <r>   10.2124    0.0000 </r>
       <r>   10.5628    0.0000 </r>
       <r>   11.3773    0.0000 </r>
       <r>   13.4178    0.0000 </r>
       <r>   13.5387    0.0000 </r>
       <r>   13.6595    0.0000 </r>
       <r>   14.0743    0.0000 </r>
       <r>   14.3953    0.0000 </r>
       <r>   14.7011    0.0000 </r>
       <r>   14.7242    0.0000 </r>
       <r>   15.0005    0.0000 </r>
       <r>   15.8104    0.0000 </r>
       <r>   16.0761    0.0000 </r>
       <r>   16.9955    0.0000 </r>
       <r>   17.1467    0.0000 </r>
       <r>   17.4727    0.0000 </r>
       <r>   18.1678    0.0000 </r>
       <r>   18.2708    0.0000 </r>
       <r>   18.8131    0.0000 </r>
       <r>   19.1269    0.0000 </r>
       <r>   19.4729    0.0000 </r>
       <r>   19.9512    0.0000 </r>
       <r>   20.1069    0.0000 </r>
      </set>
      <set comment="kpoint 5">
       <r>  -14.1393    1.0000 </r>
       <r>  -13.7984    1.0000 </r>
       <r>  -10.9455    1.0000 </r>
       <r>   -6.9996    1.0000 </r>
       <r>   -6.6551    1.0000 </r>
       <r>   -6.1012    1.0000 </r>
       <r>   -4.4099    1.0000 </r>
       <r>   -4.1697    1.0000 </r>
       <r>   -2.9828    1.0000 </r>
       <r>   -2.4767    1.0000 </r>
       <r>   -2.3703    1.0000 </r>
       <r>   -2.0782    1.0000 </r>
       <r>   -1.5873    1.0000 </r>
       <r>   -1.3471    1.0000 </r>
       <r>   -0.1773    1.0000 </r>
       <r>    0.9686    1.0000 </r>
       <r>    1.2070    1.0000 </r>
       <r>    1.9374    1.0000 </r>
       <r>    1.9593    1.0000 </r>
       <r>    2.4215    1.0000 </r>
       <r>    2.8290    1.0000 </r>
       <r>    3.6322    1.0000 </r>
       <r>    3.6660    1.0000 </r>
       <r>    4.5477    1.0000 </r>
       <r>    9.6619    0.0000 </r>
       <r>    9.7466    0.0000 </r>
       <r>   10.3144    0.0000 </r>
       <r>   11.1872    0.0000 </r>
       <r>   13.5741    0.0000 </r>
       <r>   13.7162    0.0000 </r>
       <r>   13.8785    0.0000 </r>
       <r>   14.1690    0.0000 </r>
       <r>   14.1867    0.0000 </r>
       <r>   14.5856    0.0000 </r>
       <r>   14.8454    0.0000 </r>
       <r>   15.0871    0.0000 </r>
       <r>   15.5535    0.0000 </r>
       <r>   16.0494    0.0000 </r>
       <r>   17.1722    0.0000 </r>
       <r>   17.7834    0.0000 </r>
       <r>   18.0356    0.0000 </r>
       <r>   18.2593    0.0000 </r>
       <r>   18.5137    0.0000 </r>
       <r>   18.8409    0.0000 </r>
       <r>   19.0540    0.0000 </r>
       <r>   19.4776    0.0000 </r>
       <r>   19.5051    0.0000 </r>
       <r>   20.0912    0.0000 </r>
      </set>
      <set comment="kpoint 6">
       <r>  -14.4856    1.0000 </r>
       <r>  -13.5473    1.0000 </r>
       <r>  -10.5502    1.0000 </r>
       <r>   -6.8464    1.0000 </r>
       <r>   -6.5585    1.0000 </r>
       <r>   -6.0653    1.0000 </r>
       <r>   -4.2309    1.0000 </r>
       <r>   -4.1931    1.0000 </r>
       <r>   -3.4353    1.0000 </r>
       <r>   -3.1756    1.0000 </r>
       <r>   -2.8853    1.0000 </r>
       <r>   -2.1987    1.0000 </r>
       <r>   -1.8275    1.0000 </r>
       <r>   -1.0230    1.0000 </r>
       <r>   -0.7214    1.0000 </r>
       <r>    1.2849    1.0000 </r>
       <r>    1.5063    1.0000 </r>
       <r>    1.8009    1.0000 </r>
       <r>    1.9362    1.0000 </r>
       <r>    2.4344    1.0000 </r>
       <r>    2.9842    1.0000 </r>
       <r>    3.4543    1.0000 </r>
       <r>    4.3102    1.0000 </r>
       <r>    4.3901    1.0000 </r>
       <r>   11.1648    0.0000 </r>
       <r>   11.4923    0.0000 </r>
       <r>   11.5563    0.0000 </r>
       <r>   12.4461    0.0000 </r>
       <r>   12.4618    0.0000 </r>
       <r>   12.9935    0.0000 </r>
       <r>   13.4768    0.0000 </r>
       <r>   13.8300    0.0000 </r>
       <r>   14.5963    0.0000 </r>
       <r>   14.6000    0.0000 </r>
       <r>   15.1427    0.0000 </r>
       <r>   15.4327    0.0000 </r>
       <r>   15.8560    0.0000 </r>
       <r>   16.1029    0.0000 </r>
       <r>   16.4073    0.0000 </r>
       <r>   16.4989    0.0000 </r>
       <r>   16.8496    0.0000 </r>
       <r>   17.1189    0.0000 </r>
       <r>   17.4056    0.0000 </r>
       <r>   17.6373    0.0000 </r>
       <r>   18.4865    0.0000 </r>
       <r>   19.7315    0.0000 </r>
       <r>   19.8352    0.0000 </r>
       <r>   20.2443    0.0000 </r>
      </set>
      <set comment="kpoint 7">
       <r>  -14.3283    1.0000 </r>
       <r>  -13.6540    1.0000 </r>
       <r>  -10.7706    1.0000 </r>
       <r>   -6.9829    1.0000 </r>
       <r>   -6.5573    1.0000 </r>
       <r>   -6.2497    1.0000 </r>
       <r>   -4.0346    1.0000 </r>
       <r>   -3.7334    1.0000 </r>
       <r>   -3.5361    1.0000 </r>
       <r>   -2.9514    1.0000 </r>
       <r>   -2.5995    1.0000 </r>
       <r>   -2.3128    1.0000 </r>
       <r>   -1.6834    1.0000 </r>
       <r>   -1.2422    1.0000 </r>
       <r>   -0.0313    1.0000 </r>
       <r>    1.0255    1.0000 </r>
       <r>    1.1319    1.0000 </r>
       <r>    1.7998    1.0000 </r>
       <r>    1.9741    1.0000 </r>
       <r>    2.2536    1.0000 </r>
       <r>    2.9179    1.0000 </r>
       <r>    3.7510    1.0000 </r>
       <r>    3.8746    1.0000 </r>
       <r>    4.4065    1.0000 </r>
       <r>   10.3240    0.0000 </r>
       <r>   10.9589    0.0000 </r>
       <r>   11.1109    0.0000 </r>
       <r>   11.8023    0.0000 </r>
       <r>   12.6329    0.0000 </r>
       <r>   13.0440    0.0000 </r>
       <r>   13.4756    0.0000 </r>
       <r>   13.9573    0.0000 </r>
       <r>   14.2865    0.0000 </r>
       <r>   14.6748    0.0000 </r>
       <r>   15.1650    0.0000 </r>
       <r>   15.5434    0.0000 </r>
       <r>   15.7855    0.0000 </r>
       <r>   16.2061    0.0000 </r>
       <r>   16.5346    0.0000 </r>
       <r>   16.9744    0.0000 </r>
       <r>   17.2453    0.0000 </r>
       <r>   17.4161    0.0000 </r>
       <r>   18.1620    0.0000 </r>
       <r>   18.4728    0.0000 </r>
       <r>   19.0269    0.0000 </r>
       <r>   19.4106    0.0000 </r>
       <r>   20.0615    0.0000 </r>
       <r>   20.2326    0.0000 </r>
      </set>
      <set comment="kpoint 8">
       <r>  -14.1550    1.0000 </r>
       <r>  -13.7810    1.0000 </r>
       <r>  -10.9316    1.0000 </r>
       <r>   -7.0357    1.0000 </r>
       <r>   -6.6885    1.0000 </r>
       <r>   -6.2201    1.0000 </r>
       <r>   -4.3087    1.0000 </r>
       <r>   -3.8451    1.0000 </r>
       <r>   -3.1238    1.0000 </r>
       <r>   -2.8155    1.0000 </r>
       <r>   -2.1508    1.0000 </r>
       <r>   -1.8495    1.0000 </r>
       <r>   -1.5680    1.0000 </r>
       <r>   -1.4039    1.0000 </r>
       <r>   -0.0372    1.0000 </r>
       <r>    0.7133    1.0000 </r>
       <r>    0.8487    1.0000 </r>
       <r>    1.8460    1.0000 </r>
       <r>    2.1443    1.0000 </r>
       <r>    2.4377    1.0000 </r>
       <r>    3.0824    1.0000 </r>
       <r>    3.3111    1.0000 </r>
       <r>    3.8692    1.0000 </r>
       <r>    4.4323    1.0000 </r>
       <r>    9.7378    0.0000 </r>
       <r>   10.1685    0.0000 </r>
       <r>   10.4431    0.0000 </r>
       <r>   11.5615    0.0000 </r>
       <r>   12.7463    0.0000 </r>
       <r>   13.2047    0.0000 </r>
       <r>   13.3991    0.0000 </r>
       <r>   13.9396    0.0000 </r>
       <r>   14.4928    0.0000 </r>
       <r>   14.7916    0.0000 </r>
       <r>   14.9687    0.0000 </r>
       <r>   15.7236    0.0000 </r>
       <r>   16.0326    0.0000 </r>
       <r>   16.3346    0.0000 </r>
       <r>   16.7051    0.0000 </r>
       <r>   17.1210    0.0000 </r>
       <r>   17.7338    0.0000 </r>
       <r>   18.1504    0.0000 </r>
       <r>   18.3065    0.0000 </r>
       <r>   18.8610    0.0000 </r>
       <r>   19.2548    0.0000 </r>
       <r>   19.6303    0.0000 </r>
       <r>   19.9993    0.0000 </r>
       <r>   20.2644    0.0000 </r>
      </set>
      <set comment="kpoint 9">
       <r>  -14.1391    1.0000 </r>
       <r>  -13.7884    1.0000 </r>
       <r>  -10.9302    1.0000 </r>
       <r>   -7.0046    1.0000 </r>
       <r>   -6.8065    1.0000 </r>
       <r>   -6.2413    1.0000 </r>
       <r>   -4.2015    1.0000 </r>
       <r>   -4.0139    1.0000 </r>
       <r>   -3.3628    1.0000 </r>
       <r>   -2.6292    1.0000 </r>
       <r>   -2.0157    1.0000 </r>
       <r>   -1.8365    1.0000 </r>
       <r>   -1.4930    1.0000 </r>
       <r>   -1.2506    1.0000 </r>
       <r>   -0.0455    1.0000 </r>
       <r>    0.7445    1.0000 </r>
       <r>    1.2497    1.0000 </r>
       <r>    1.4275    1.0000 </r>
       <r>    2.0850    1.0000 </r>
       <r>    2.5904    1.0000 </r>
       <r>    2.8878    1.0000 </r>
       <r>    3.4532    1.0000 </r>
       <r>    3.7941    1.0000 </r>
       <r>    4.4414    1.0000 </r>
       <r>    9.7827    0.0000 </r>
       <r>    9.7887    0.0000 </r>
       <r>   10.3241    0.0000 </r>
       <r>   11.4824    0.0000 </r>
       <r>   12.9173    0.0000 </r>
       <r>   13.1261    0.0000 </r>
       <r>   13.2267    0.0000 </r>
       <r>   14.0804    0.0000 </r>
       <r>   14.5540    0.0000 </r>
       <r>   14.7633    0.0000 </r>
       <r>   15.0825    0.0000 </r>
       <r>   15.7242    0.0000 </r>
       <r>   15.9299    0.0000 </r>
       <r>   16.2230    0.0000 </r>
       <r>   16.9685    0.0000 </r>
       <r>   17.2478    0.0000 </r>
       <r>   17.7619    0.0000 </r>
       <r>   18.2457    0.0000 </r>
       <r>   18.3937    0.0000 </r>
       <r>   18.8090    0.0000 </r>
       <r>   19.0391    0.0000 </r>
       <r>   19.2752    0.0000 </r>
       <r>   19.8637    0.0000 </r>
       <r>   20.0857    0.0000 </r>
      </set>
      <set comment="kpoint 10">
       <r>  -14.3030    1.0000 </r>
       <r>  -13.6605    1.0000 </r>
       <r>  -10.7603    1.0000 </r>
       <r>   -6.9290    1.0000 </r>
       <r>   -6.8397    1.0000 </r>
       <r>   -6.3003    1.0000 </r>
       <r>   -4.1313    1.0000 </r>
       <r>   -3.8303    1.0000 </r>
       <r>   -3.6878    1.0000 </r>
       <r>   -2.8838    1.0000 </r>
       <r>   -2.6093    1.0000 </r>
       <r>   -1.8306    1.0000 </r>
       <r>   -1.3925    1.0000 </r>
       <r>   -1.1269    1.0000 </r>
       <r>    0.3564    1.0000 </r>
       <r>    0.9025    1.0000 </r>
       <r>    1.1075    1.0000 </r>
       <r>    1.4575    1.0000 </r>
       <r>    2.1480    1.0000 </r>
       <r>    2.5813    1.0000 </r>
       <r>    2.9711    1.0000 </r>
       <r>    3.2154    1.0000 </r>
       <r>    3.8709    1.0000 </r>
       <r>    4.4054    1.0000 </r>
       <r>   10.1950    0.0000 </r>
       <r>   10.4107    0.0000 </r>
       <r>   10.7998    0.0000 </r>
       <r>   11.5421    0.0000 </r>
       <r>   12.9329    0.0000 </r>
       <r>   13.0103    0.0000 </r>
       <r>   13.0467    0.0000 </r>
       <r>   14.2298    0.0000 </r>
       <r>   14.5351    0.0000 </r>
       <r>   14.6221    0.0000 </r>
       <r>   15.1328    0.0000 </r>
       <r>   15.5281    0.0000 </r>
       <r>   15.8990    0.0000 </r>
       <r>   16.1634    0.0000 </r>
       <r>   16.7626    0.0000 </r>
       <r>   16.8986    0.0000 </r>
       <r>   17.0788    0.0000 </r>
       <r>   17.7998    0.0000 </r>
       <r>   18.4595    0.0000 </r>
       <r>   18.7212    0.0000 </r>
       <r>   18.9012    0.0000 </r>
       <r>   19.3407    0.0000 </r>
       <r>   19.5131    0.0000 </r>
       <r>   20.0774    0.0000 </r>
      </set>
      <set comment="kpoint 11">
       <r>  -14.4653    1.0000 </r>
       <r>  -13.5506    1.0000 </r>
       <r>  -10.5282    1.0000 </r>
       <r>   -6.9426    1.0000 </r>
       <r>   -6.6466    1.0000 </r>
       <r>   -6.2220    1.0000 </r>
       <r>   -4.4155    1.0000 </r>
       <r>   -4.1218    1.0000 </r>
       <r>   -3.7347    1.0000 </r>
       <r>   -3.0218    1.0000 </r>
       <r>   -2.4963    1.0000 </r>
       <r>   -1.9697    1.0000 </r>
       <r>   -1.6595    1.0000 </r>
       <r>   -0.9107    1.0000 </r>
       <r>   -0.5691    1.0000 </r>
       <r>    1.1411    1.0000 </r>
       <r>    1.5457    1.0000 </r>
       <r>    1.8397    1.0000 </r>
       <r>    2.0358    1.0000 </r>
       <r>    2.5137    1.0000 </r>
       <r>    3.0664    1.0000 </r>
       <r>    3.5874    1.0000 </r>
       <r>    3.6760    1.0000 </r>
       <r>    4.3905    1.0000 </r>
       <r>   11.0207    0.0000 </r>
       <r>   11.1377    0.0000 </r>
       <r>   11.3959    0.0000 </r>
       <r>   11.8442    0.0000 </r>
       <r>   12.6806    0.0000 </r>
       <r>   12.8903    0.0000 </r>
       <r>   13.2584    0.0000 </r>
       <r>   14.1848    0.0000 </r>
       <r>   14.3895    0.0000 </r>
       <r>   14.5644    0.0000 </r>
       <r>   15.3215    0.0000 </r>
       <r>   15.5111    0.0000 </r>
       <r>   15.8567    0.0000 </r>
       <r>   16.2161    0.0000 </r>
       <r>   16.3679    0.0000 </r>
       <r>   16.5669    0.0000 </r>
       <r>   16.8483    0.0000 </r>
       <r>   17.1911    0.0000 </r>
       <r>   17.6403    0.0000 </r>
       <r>   17.9169    0.0000 </r>
       <r>   18.5953    0.0000 </r>
       <r>   18.8755    0.0000 </r>
       <r>   19.6946    0.0000 </r>
       <r>   20.2627    0.0000 </r>
      </set>
      <set comment="kpoint 12">
       <r>  -14.5627    1.0000 </r>
       <r>  -13.4904    1.0000 </r>
       <r>  -10.3814    1.0000 </r>
       <r>   -6.7976    1.0000 </r>
       <r>   -6.4921    1.0000 </r>
       <r>   -6.0780    1.0000 </r>
       <r>   -4.7688    1.0000 </r>
       <r>   -4.6490    1.0000 </r>
       <r>   -3.4453    1.0000 </r>
       <r>   -2.7776    1.0000 </r>
       <r>   -2.5390    1.0000 </r>
       <r>   -2.1098    1.0000 </r>
       <r>   -1.9584    1.0000 </r>
       <r>   -1.2227    1.0000 </r>
       <r>   -0.8308    1.0000 </r>
       <r>    1.1972    1.0000 </r>
       <r>    1.2823    1.0000 </r>
       <r>    2.2532    1.0000 </r>
       <r>    2.3869    1.0000 </r>
       <r>    2.5488    1.0000 </r>
       <r>    3.1029    1.0000 </r>
       <r>    3.3254    1.0000 </r>
       <r>    4.0821    1.0000 </r>
       <r>    4.4033    1.0000 </r>
       <r>   11.3671    0.0000 </r>
       <r>   11.6899    0.0000 </r>
       <r>   11.7652    0.0000 </r>
       <r>   12.1310    0.0000 </r>
       <r>   12.8474    0.0000 </r>
       <r>   12.9891    0.0000 </r>
       <r>   13.4808    0.0000 </r>
       <r>   14.0436    0.0000 </r>
       <r>   14.3192    0.0000 </r>
       <r>   14.3725    0.0000 </r>
       <r>   15.5191    0.0000 </r>
       <r>   15.7166    0.0000 </r>
       <r>   15.9532    0.0000 </r>
       <r>   16.0031    0.0000 </r>
       <r>   16.4344    0.0000 </r>
       <r>   16.4626    0.0000 </r>
       <r>   16.5870    0.0000 </r>
       <r>   16.9483    0.0000 </r>
       <r>   17.1670    0.0000 </r>
       <r>   17.2262    0.0000 </r>
       <r>   18.2549    0.0000 </r>
       <r>   18.6936    0.0000 </r>
       <r>   19.3617    0.0000 </r>
       <r>   19.6007    0.0000 </r>
      </set>
      <set comment="kpoint 13">
       <r>  -14.1694    1.0000 </r>
       <r>  -13.7650    1.0000 </r>
       <r>  -10.9173    1.0000 </r>
       <r>   -7.1270    1.0000 </r>
       <r>   -6.5588    1.0000 </r>
       <r>   -6.4213    1.0000 </r>
       <r>   -4.2853    1.0000 </r>
       <r>   -3.3867    1.0000 </r>
       <r>   -3.1931    1.0000 </r>
       <r>   -2.6415    1.0000 </r>
       <r>   -2.6184    1.0000 </r>
       <r>   -2.1058    1.0000 </r>
       <r>   -1.4310    1.0000 </r>
       <r>   -0.7987    1.0000 </r>
       <r>   -0.0903    1.0000 </r>
       <r>    0.4251    1.0000 </r>
       <r>    0.4459    1.0000 </r>
       <r>    2.0327    1.0000 </r>
       <r>    2.1281    1.0000 </r>
       <r>    2.6263    1.0000 </r>
       <r>    2.6774    1.0000 </r>
       <r>    3.6227    1.0000 </r>
       <r>    4.0183    1.0000 </r>
       <r>    4.1502    1.0000 </r>
       <r>    9.8028    0.0000 </r>
       <r>   10.5047    0.0000 </r>
       <r>   11.1393    0.0000 </r>
       <r>   11.4269    0.0000 </r>
       <r>   12.2839    0.0000 </r>
       <r>   12.9339    0.0000 </r>
       <r>   13.0277    0.0000 </r>
       <r>   14.0247    0.0000 </r>
       <r>   14.2337    0.0000 </r>
       <r>   14.6445    0.0000 </r>
       <r>   15.3309    0.0000 </r>
       <r>   15.7194    0.0000 </r>
       <r>   16.2043    0.0000 </r>
       <r>   16.5994    0.0000 </r>
       <r>   16.8749    0.0000 </r>
       <r>   17.2910    0.0000 </r>
       <r>   17.5043    0.0000 </r>
       <r>   17.5885    0.0000 </r>
       <r>   18.2608    0.0000 </r>
       <r>   18.5341    0.0000 </r>
       <r>   19.0105    0.0000 </r>
       <r>   19.7128    0.0000 </r>
       <r>   19.8847    0.0000 </r>
       <r>   20.4681    0.0000 </r>
      </set>
      <set comment="kpoint 14">
       <r>  -14.0346    1.0000 </r>
       <r>  -13.8664    1.0000 </r>
       <r>  -10.9670    1.0000 </r>
       <r>   -7.2646    1.0000 </r>
       <r>   -6.7820    1.0000 </r>
       <r>   -6.3281    1.0000 </r>
       <r>   -4.2656    1.0000 </r>
       <r>   -3.9456    1.0000 </r>
       <r>   -2.8960    1.0000 </r>
       <r>   -2.5103    1.0000 </r>
       <r>   -1.8622    1.0000 </r>
       <r>   -1.6140    1.0000 </r>
       <r>   -1.4812    1.0000 </r>
       <r>   -0.7465    1.0000 </r>
       <r>   -0.2697    1.0000 </r>
       <r>    0.1417    1.0000 </r>
       <r>    0.5467    1.0000 </r>
       <r>    1.8748    1.0000 </r>
       <r>    2.0246    1.0000 </r>
       <r>    2.4937    1.0000 </r>
       <r>    2.9217    1.0000 </r>
       <r>    3.7022    1.0000 </r>
       <r>    3.7669    1.0000 </r>
       <r>    4.2284    1.0000 </r>
       <r>    9.6285    0.0000 </r>
       <r>    9.8648    0.0000 </r>
       <r>   10.6835    0.0000 </r>
       <r>   11.6055    0.0000 </r>
       <r>   12.2777    0.0000 </r>
       <r>   12.6471    0.0000 </r>
       <r>   13.0912    0.0000 </r>
       <r>   13.7484    0.0000 </r>
       <r>   14.3228    0.0000 </r>
       <r>   14.7756    0.0000 </r>
       <r>   15.3329    0.0000 </r>
       <r>   16.0443    0.0000 </r>
       <r>   16.0919    0.0000 </r>
       <r>   16.8123    0.0000 </r>
       <r>   17.0761    0.0000 </r>
       <r>   17.3375    0.0000 </r>
       <r>   17.5735    0.0000 </r>
       <r>   17.8610    0.0000 </r>
       <r>   18.1869    0.0000 </r>
       <r>   18.3999    0.0000 </r>
       <r>   19.4662    0.0000 </r>
       <r>   19.6875    0.0000 </r>
       <r>   19.8938    0.0000 </r>
       <r>   20.4344    0.0000 </r>
      </set>
      <set comment="kpoint 15">
       <r>  -14.1266    1.0000 </r>
       <r>  -13.7821    1.0000 </r>
       <r>  -10.8686    1.0000 </r>
       <r>   -7.2983    1.0000 </r>
       <r>   -7.0734    1.0000 </r>
       <r>   -6.1795    1.0000 </r>
       <r>   -4.4055    1.0000 </r>
       <r>   -3.7887    1.0000 </r>
       <r>   -3.0555    1.0000 </r>
       <r>   -2.3954    1.0000 </r>
       <r>   -2.2358    1.0000 </r>
       <r>   -1.6031    1.0000 </r>
       <r>   -1.1312    1.0000 </r>
       <r>   -0.8161    1.0000 </r>
       <r>   -0.0756    1.0000 </r>
       <r>    0.5311    1.0000 </r>
       <r>    0.8469    1.0000 </r>
       <r>    1.3297    1.0000 </r>
       <r>    2.0928    1.0000 </r>
       <r>    2.6166    1.0000 </r>
       <r>    2.7746    1.0000 </r>
       <r>    3.1708    1.0000 </r>
       <r>    4.0473    1.0000 </r>
[...]
       <r>    21.2573     0.0000    96.0000 </r>
       <r>    21.2612     0.0000    96.0000 </r>
       <r>    21.2651     0.0000    96.0000 </r>
       <r>    21.2690     0.0000    96.0000 </r>
       <r>    21.2729     0.0000    96.0000 </r>
       <r>    21.2768     0.0000    96.0000 </r>
       <r>    21.2807     0.0000    96.0000 </r>
       <r>    21.2846     0.0000    96.0000 </r>
       <r>    21.2885     0.0000    96.0000 </r>
       <r>    21.2925     0.0000    96.0000 </r>
       <r>    21.2964     0.0000    96.0000 </r>
       <r>    21.3003     0.0000    96.0000 </r>
       <r>    21.3042     0.0000    96.0000 </r>
       <r>    21.3081     0.0000    96.0000 </r>
       <r>    21.3120     0.0000    96.0000 </r>
       <r>    21.3159     0.0000    96.0000 </r>
       <r>    21.3198     0.0000    96.0000 </r>
       <r>    21.3237     0.0000    96.0000 </r>
       <r>    21.3277     0.0000    96.0000 </r>
       <r>    21.3316     0.0000    96.0000 </r>
       <r>    21.3355     0.0000    96.0000 </r>
       <r>    21.3394     0.0000    96.0000 </r>
       <r>    21.3433     0.0000    96.0000 </r>
       <r>    21.3472     0.0000    96.0000 </r>
       <r>    21.3511     0.0000    96.0000 </r>
       <r>    21.3550     0.0000    96.0000 </r>
       <r>    21.3589     0.0000    96.0000 </r>
       <r>    21.3629     0.0000    96.0000 </r>
       <r>    21.3668     0.0000    96.0000 </r>
       <r>    21.3707     0.0000    96.0000 </r>
       <r>    21.3746     0.0000    96.0000 </r>
       <r>    21.3785     0.0000    96.0000 </r>
       <r>    21.3824     0.0000    96.0000 </r>
       <r>    21.3863     0.0000    96.0000 </r>
       <r>    21.3902     0.0000    96.0000 </r>
       <r>    21.3942     0.0000    96.0000 </r>
       <r>    21.3981     0.0000    96.0000 </r>
       <r>    21.4020     0.0000    96.0000 </r>
       <r>    21.4059     0.0000    96.0000 </r>
       <r>    21.4098     0.0000    96.0000 </r>
       <r>    21.4137     0.0000    96.0000 </r>
       <r>    21.4176     0.0000    96.0000 </r>
       <r>    21.4215     0.0000    96.0000 </r>
       <r>    21.4254     0.0000    96.0000 </r>
       <r>    21.4294     0.0000    96.0000 </r>
       <r>    21.4333     0.0000    96.0000 </r>
       <r>    21.4372     0.0000    96.0000 </r>
       <r>    21.4411     0.0000    96.0000 </r>
       <r>    21.4450     0.0000    96.0000 </r>
       <r>    21.4489     0.0000    96.0000 </r>
       <r>    21.4528     0.0000    96.0000 </r>
       <r>    21.4567     0.0000    96.0000 </r>
       <r>    21.4606     0.0000    96.0000 </r>
       <r>    21.4646     0.0000    96.0000 </r>
       <r>    21.4685     0.0000    96.0000 </r>
       <r>    21.4724     0.0000    96.0000 </r>
       <r>    21.4763     0.0000    96.0000 </r>
       <r>    21.4802     0.0000    96.0000 </r>
       <r>    21.4841     0.0000    96.0000 </r>
       <r>    21.4880     0.0000    96.0000 </r>
       <r>    21.4919     0.0000    96.0000 </r>
       <r>    21.4958     0.0000    96.0000 </r>
       <r>    21.4998     0.0000    96.0000 </r>
       <r>    21.5037     0.0000    96.0000 </r>
       <r>    21.5076     0.0000    96.0000 </r>
       <r>    21.5115     0.0000    96.0000 </r>
       <r>    21.5154     0.0000    96.0000 </r>
       <r>    21.5193     0.0000    96.0000 </r>
       <r>    21.5232     0.0000    96.0000 </r>
       <r>    21.5271     0.0000    96.0000 </r>
       <r>    21.5310     0.0000    96.0000 </r>
       <r>    21.5350     0.0000    96.0000 </r>
       <r>    21.5389     0.0000    96.0000 </r>
       <r>    21.5428     0.0000    96.0000 </r>
       <r>    21.5467     0.0000    96.0000 </r>
       <r>    21.5506     0.0000    96.0000 </r>
       <r>    21.5545     0.0000    96.0000 </r>
       <r>    21.5584     0.0000    96.0000 </r>
       <r>    21.5623     0.0000    96.0000 </r>
       <r>    21.5662     0.0000    96.0000 </r>
       <r>    21.5702     0.0000    96.0000 </r>
       <r>    21.5741     0.0000    96.0000 </r>
       <r>    21.5780     0.0000    96.0000 </r>
       <r>    21.5819     0.0000    96.0000 </r>
       <r>    21.5858     0.0000    96.0000 </r>
       <r>    21.5897     0.0000    96.0000 </r>
       <r>    21.5936     0.0000    96.0000 </r>
       <r>    21.5975     0.0000    96.0000 </r>
       <r>    21.6014     0.0000    96.0000 </r>
       <r>    21.6054     0.0000    96.0000 </r>
       <r>    21.6093     0.0000    96.0000 </r>
       <r>    21.6132     0.0000    96.0000 </r>
       <r>    21.6171     0.0000    96.0000 </r>
       <r>    21.6210     0.0000    96.0000 </r>
       <r>    21.6249     0.0000    96.0000 </r>
       <r>    21.6288     0.0000    96.0000 </r>
       <r>    21.6327     0.0000    96.0000 </r>
       <r>    21.6366     0.0000    96.0000 </r>
       <r>    21.6406     0.0000    96.0000 </r>
       <r>    21.6445     0.0000    96.0000 </r>
       <r>    21.6484     0.0000    96.0000 </r>
       <r>    21.6523     0.0000    96.0000 </r>
       <r>    21.6562     0.0000    96.0000 </r>
       <r>    21.6601     0.0000    96.0000 </r>
       <r>    21.6640     0.0000    96.0000 </r>
       <r>    21.6679     0.0000    96.0000 </r>
       <r>    21.6718     0.0000    96.0000 </r>
       <r>    21.6758     0.0000    96.0000 </r>
       <r>    21.6797     0.0000    96.0000 </r>
       <r>    21.6836     0.0000    96.0000 </r>
       <r>    21.6875     0.0000    96.0000 </r>
       <r>    21.6914     0.0000    96.0000 </r>
       <r>    21.6953     0.0000    96.0000 </r>
       <r>    21.6992     0.0000    96.0000 </r>
       <r>    21.7031     0.0000    96.0000 </r>
       <r>    21.7071     0.0000    96.0000 </r>
       <r>    21.7110     0.0000    96.0000 </r>
       <r>    21.7149     0.0000    96.0000 </r>
       <r>    21.7188     0.0000    96.0000 </r>
       <r>    21.7227     0.0000    96.0000 </r>
       <r>    21.7266     0.0000    96.0000 </r>
       <r>    21.7305     0.0000    96.0000 </r>
       <r>    21.7344     0.0000    96.0000 </r>
       <r>    21.7383     0.0000    96.0000 </r>
       <r>    21.7423     0.0000    96.0000 </r>
       <r>    21.7462     0.0000    96.0000 </r>
       <r>    21.7501     0.0000    96.0000 </r>
       <r>    21.7540     0.0000    96.0000 </r>
       <r>    21.7579     0.0000    96.0000 </r>
       <r>    21.7618     0.0000    96.0000 </r>
       <r>    21.7657     0.0000    96.0000 </r>
       <r>    21.7696     0.0000    96.0000 </r>
       <r>    21.7735     0.0000    96.0000 </r>
       <r>    21.7775     0.0000    96.0000 </r>
       <r>    21.7814     0.0000    96.0000 </r>
       <r>    21.7853     0.0000    96.0000 </r>
       <r>    21.7892     0.0000    96.0000 </r>
       <r>    21.7931     0.0000    96.0000 </r>
       <r>    21.7970     0.0000    96.0000 </r>
       <r>    21.8009     0.0000    96.0000 </r>
       <r>    21.8048     0.0000    96.0000 </r>
       <r>    21.8087     0.0000    96.0000 </r>
       <r>    21.8127     0.0000    96.0000 </r>
       <r>    21.8166     0.0000    96.0000 </r>
       <r>    21.8205     0.0000    96.0000 </r>
       <r>    21.8244     0.0000    96.0000 </r>
       <r>    21.8283     0.0000    96.0000 </r>
       <r>    21.8322     0.0000    96.0000 </r>
       <r>    21.8361     0.0000    96.0000 </r>
       <r>    21.8400     0.0000    96.0000 </r>
       <r>    21.8439     0.0000    96.0000 </r>
       <r>    21.8479     0.0000    96.0000 </r>
       <r>    21.8518     0.0000    96.0000 </r>
       <r>    21.8557     0.0000    96.0000 </r>
       <r>    21.8596     0.0000    96.0000 </r>
       <r>    21.8635     0.0000    96.0000 </r>
       <r>    21.8674     0.0000    96.0000 </r>
       <r>    21.8713     0.0000    96.0000 </r>
       <r>    21.8752     0.0000    96.0000 </r>
       <r>    21.8791     0.0000    96.0000 </r>
       <r>    21.8831     0.0000    96.0000 </r>
       <r>    21.8870     0.0000    96.0000 </r>
       <r>    21.8909     0.0000    96.0000 </r>
       <r>    21.8948     0.0000    96.0000 </r>
       <r>    21.8987     0.0000    96.0000 </r>
       <r>    21.9026     0.0000    96.0000 </r>
       <r>    21.9065     0.0000    96.0000 </r>
       <r>    21.9104     0.0000    96.0000 </r>
       <r>    21.9143     0.0000    96.0000 </r>
       <r>    21.9183     0.0000    96.0000 </r>
       <r>    21.9222     0.0000    96.0000 </r>
       <r>    21.9261     0.0000    96.0000 </r>
       <r>    21.9300     0.0000    96.0000 </r>
       <r>    21.9339     0.0000    96.0000 </r>
       <r>    21.9378     0.0000    96.0000 </r>
       <r>    21.9417     0.0000    96.0000 </r>
       <r>    21.9456     0.0000    96.0000 </r>
       <r>    21.9495     0.0000    96.0000 </r>
       <r>    21.9535     0.0000    96.0000 </r>
       <r>    21.9574     0.0000    96.0000 </r>
       <r>    21.9613     0.0000    96.0000 </r>
       <r>    21.9652     0.0000    96.0000 </r>
       <r>    21.9691     0.0000    96.0000 </r>
       <r>    21.9730     0.0000    96.0000 </r>
       <r>    21.9769     0.0000    96.0000 </r>
       <r>    21.9808     0.0000    96.0000 </r>
       <r>    21.9848     0.0000    96.0000 </r>
       <r>    21.9887     0.0000    96.0000 </r>
       <r>    21.9926     0.0000    96.0000 </r>
       <r>    21.9965     0.0000    96.0000 </r>
       <r>    22.0004     0.0000    96.0000 </r>
       <r>    22.0043     0.0000    96.0000 </r>
       <r>    22.0082     0.0000    96.0000 </r>
       <r>    22.0121     0.0000    96.0000 </r>
       <r>    22.0160     0.0000    96.0000 </r>
       <r>    22.0200     0.0000    96.0000 </r>
       <r>    22.0239     0.0000    96.0000 </r>
       <r>    22.0278     0.0000    96.0000 </r>
       <r>    22.0317     0.0000    96.0000 </r>
       <r>    22.0356     0.0000    96.0000 </r>
       <r>    22.0395     0.0000    96.0000 </r>
       <r>    22.0434     0.0000    96.0000 </r>
       <r>    22.0473     0.0000    96.0000 </r>
       <r>    22.0512     0.0000    96.0000 </r>
       <r>    22.0552     0.0000    96.0000 </r>
       <r>    22.0591     0.0000    96.0000 </r>
       <r>    22.0630     0.0000    96.0000 </r>
       <r>    22.0669     0.0000    96.0000 </r>
       <r>    22.0708     0.0000    96.0000 </r>
       <r>    22.0747     0.0000    96.0000 </r>
       <r>    22.0786     0.0000    96.0000 </r>
       <r>    22.0825     0.0000    96.0000 </r>
       <r>    22.0864     0.0000    96.0000 </r>
       <r>    22.0904     0.0000    96.0000 </r>
       <r>    22.0943     0.0000    96.0000 </r>
       <r>    22.0982     0.0000    96.0000 </r>
       <r>    22.1021     0.0000    96.0000 </r>
       <r>    22.1060     0.0000    96.0000 </r>
       <r>    22.1099     0.0000    96.0000 </r>
       <r>    22.1138     0.0000    96.0000 </r>
       <r>    22.1177     0.0000    96.0000 </r>
       <r>    22.1216     0.0000    96.0000 </r>
       <r>    22.1256     0.0000    96.0000 </r>
       <r>    22.1295     0.0000    96.0000 </r>
       <r>    22.1334     0.0000    96.0000 </r>
       <r>    22.1373     0.0000    96.0000 </r>
       <r>    22.1412     0.0000    96.0000 </r>
       <r>    22.1451     0.0000    96.0000 </r>
       <r>    22.1490     0.0000    96.0000 </r>
       <r>    22.1529     0.0000    96.0000 </r>
       <r>    22.1568     0.0000    96.0000 </r>
       <r>    22.1608     0.0000    96.0000 </r>
       <r>    22.1647     0.0000    96.0000 </r>
       <r>    22.1686     0.0000    96.0000 </r>
       <r>    22.1725     0.0000    96.0000 </r>
       <r>    22.1764     0.0000    96.0000 </r>
       <r>    22.1803     0.0000    96.0000 </r>
       <r>    22.1842     0.0000    96.0000 </r>
       <r>    22.1881     0.0000    96.0000 </r>
       <r>    22.1920     0.0000    96.0000 </r>
       <r>    22.1960     0.0000    96.0000 </r>
       <r>    22.1999     0.0000    96.0000 </r>
       <r>    22.2038     0.0000    96.0000 </r>
       <r>    22.2077     0.0000    96.0000 </r>
       <r>    22.2116     0.0000    96.0000 </r>
       <r>    22.2155     0.0000    96.0000 </r>
       <r>    22.2194     0.0000    96.0000 </r>
       <r>    22.2233     0.0000    96.0000 </r>
       <r>    22.2272     0.0000    96.0000 </r>
       <r>    22.2312     0.0000    96.0000 </r>
       <r>    22.2351     0.0000    96.0000 </r>
       <r>    22.2390     0.0000    96.0000 </r>
       <r>    22.2429     0.0000    96.0000 </r>
       <r>    22.2468     0.0000    96.0000 </r>
       <r>    22.2507     0.0000    96.0000 </r>
       <r>    22.2546     0.0000    96.0000 </r>
       <r>    22.2585     0.0000    96.0000 </r>
       <r>    22.2624     0.0000    96.0000 </r>
       <r>    22.2664     0.0000    96.0000 </r>
       <r>    22.2703     0.0000    96.0000 </r>
       <r>    22.2742     0.0000    96.0000 </r>
       <r>    22.2781     0.0000    96.0000 </r>
       <r>    22.2820     0.0000    96.0000 </r>
       <r>    22.2859     0.0000    96.0000 </r>
       <r>    22.2898     0.0000    96.0000 </r>
       <r>    22.2937     0.0000    96.0000 </r>
       <r>    22.2977     0.0000    96.0000 </r>
       <r>    22.3016     0.0000    96.0000 </r>
       <r>    22.3055     0.0000    96.0000 </r>
       <r>    22.3094     0.0000    96.0000 </r>
       <r>    22.3133     0.0000    96.0000 </r>
       <r>    22.3172     0.0000    96.0000 </r>
       <r>    22.3211     0.0000    96.0000 </r>
       <r>    22.3250     0.0000    96.0000 </r>
       <r>    22.3289     0.0000    96.0000 </r>
       <r>    22.3329     0.0000    96.0000 </r>
       <r>    22.3368     0.0000    96.0000 </r>
       <r>    22.3407     0.0000    96.0000 </r>
       <r>    22.3446     0.0000    96.0000 </r>
       <r>    22.3485     0.0000    96.0000 </r>
       <r>    22.3524     0.0000    96.0000 </r>
       <r>    22.3563     0.0000    96.0000 </r>
       <r>    22.3602     0.0000    96.0000 </r>
       <r>    22.3641     0.0000    96.0000 </r>
       <r>    22.3681     0.0000    96.0000 </r>
       <r>    22.3720     0.0000    96.0000 </r>
       <r>    22.3759     0.0000    96.0000 </r>
       <r>    22.3798     0.0000    96.0000 </r>
       <r>    22.3837     0.0000    96.0000 </r>
       <r>    22.3876     0.0000    96.0000 </r>
       <r>    22.3915     0.0000    96.0000 </r>
       <r>    22.3954     0.0000    96.0000 </r>
       <r>    22.3993     0.0000    96.0000 </r>
       <r>    22.4033     0.0000    96.0000 </r>
       <r>    22.4072     0.0000    96.0000 </r>
       <r>    22.4111     0.0000    96.0000 </r>
       <r>    22.4150     0.0000    96.0000 </r>
       <r>    22.4189     0.0000    96.0000 </r>
       <r>    22.4228     0.0000    96.0000 </r>
       <r>    22.4267     0.0000    96.0000 </r>
       <r>    22.4306     0.0000    96.0000 </r>
       <r>    22.4345     0.0000    96.0000 </r>
       <r>    22.4385     0.0000    96.0000 </r>
       <r>    22.4424     0.0000    96.0000 </r>
       <r>    22.4463     0.0000    96.0000 </r>
       <r>    22.4502     0.0000    96.0000 </r>
       <r>    22.4541     0.0000    96.0000 </r>
       <r>    22.4580     0.0000    96.0000 </r>
       <r>    22.4619     0.0000    96.0000 </r>
       <r>    22.4658     0.0000    96.0000 </r>
       <r>    22.4697     0.0000    96.0000 </r>
       <r>    22.4737     0.0000    96.0000 </r>
       <r>    22.4776     0.0000    96.0000 </r>
       <r>    22.4815     0.0000    96.0000 </r>
       <r>    22.4854     0.0000    96.0000 </r>
       <r>    22.4893     0.0000    96.0000 </r>
       <r>    22.4932     0.0000    96.0000 </r>
       <r>    22.4971     0.0000    96.0000 </r>
       <r>    22.5010     0.0000    96.0000 </r>
       <r>    22.5049     0.0000    96.0000 </r>
       <r>    22.5089     0.0000    96.0000 </r>
       <r>    22.5128     0.0000    96.0000 </r>
       <r>    22.5167     0.0000    96.0000 </r>
       <r>    22.5206     0.0000    96.0000 </r>
       <r>    22.5245     0.0000    96.0000 </r>
       <r>    22.5284     0.0000    96.0000 </r>
       <r>    22.5323     0.0000    96.0000 </r>
       <r>    22.5362     0.0000    96.0000 </r>
       <r>    22.5401     0.0000    96.0000 </r>
       <r>    22.5441     0.0000    96.0000 </r>
       <r>    22.5480     0.0000    96.0000 </r>
       <r>    22.5519     0.0000    96.0000 </r>
       <r>    22.5558     0.0000    96.0000 </r>
       <r>    22.5597     0.0000    96.0000 </r>
       <r>    22.5636     0.0000    96.0000 </r>
       <r>    22.5675     0.0000    96.0000 </r>
       <r>    22.5714     0.0000    96.0000 </r>
       <r>    22.5754     0.0000    96.0000 </r>
       <r>    22.5793     0.0000    96.0000 </r>
       <r>    22.5832     0.0000    96.0000 </r>
       <r>    22.5871     0.0000    96.0000 </r>
       <r>    22.5910     0.0000    96.0000 </r>
       <r>    22.5949     0.0000    96.0000 </r>
       <r>    22.5988     0.0000    96.0000 </r>
       <r>    22.6027     0.0000    96.0000 </r>
       <r>    22.6066     0.0000    96.0000 </r>
       <r>    22.6106     0.0000    96.0000 </r>
       <r>    22.6145     0.0000    96.0000 </r>
       <r>    22.6184     0.0000    96.0000 </r>
       <r>    22.6223     0.0000    96.0000 </r>
       <r>    22.6262     0.0000    96.0000 </r>
       <r>    22.6301     0.0000    96.0000 </r>
       <r>    22.6340     0.0000    96.0000 </r>
       <r>    22.6379     0.0000    96.0000 </r>
       <r>    22.6418     0.0000    96.0000 </r>
       <r>    22.6458     0.0000    96.0000 </r>
       <r>    22.6497     0.0000    96.0000 </r>
       <r>    22.6536     0.0000    96.0000 </r>
       <r>    22.6575     0.0000    96.0000 </r>
       <r>    22.6614     0.0000    96.0000 </r>
       <r>    22.6653     0.0000    96.0000 </r>
       <r>    22.6692     0.0000    96.0000 </r>
       <r>    22.6731     0.0000    96.0000 </r>
       <r>    22.6770     0.0000    96.0000 </r>
       <r>    22.6810     0.0000    96.0000 </r>
       <r>    22.6849     0.0000    96.0000 </r>
       <r>    22.6888     0.0000    96.0000 </r>
       <r>    22.6927     0.0000    96.0000 </r>
       <r>    22.6966     0.0000    96.0000 </r>
       <r>    22.7005     0.0000    96.0000 </r>
       <r>    22.7044     0.0000    96.0000 </r>
       <r>    22.7083     0.0000    96.0000 </r>
       <r>    22.7122     0.0000    96.0000 </r>
       <r>    22.7162     0.0000    96.0000 </r>
      </set>
     </set>
    </array>
   </total>
  </dos>
 </calculation>
 <structure name="finalpos" >
  <crystal>
   <varray name="basis" >
    <v>       5.21128944      -0.00183198      -0.00132293 </v>
    <v>      -2.35472141       4.64895989       0.00132293 </v>
    <v>      -2.35471712       1.44743372       4.41788713 </v>
   </varray>
   <i name="volume">    106.99348123 </i>
   <varray name="rec_basis" >
    <v>       0.19194314       0.09720011       0.07045927 </v>
    <v>       0.00005775       0.21515118      -0.07045927 </v>
    <v>       0.00005746      -0.00003532       0.22639474 </v>
   </varray>
  </crystal>
  <varray name="positions" >
   <v>       0.49999994       0.49999994       0.50000000 </v>
   <v>       0.66934316       0.00325553       0.00325509 </v>
   <v>       0.99674570       0.33065808       0.00325535 </v>
   <v>       0.32396096       0.19732857       0.19732731 </v>
   <v>       0.80267307       0.67604060       0.19732743 </v>
   <v>       0.19732817       0.80267348       0.32396087 </v>
   <v>       0.99674512       0.00325603       0.33065728 </v>
   <v>       0.00325603       0.99674512       0.66934272 </v>
   <v>       0.80267348       0.19732817       0.67603913 </v>
   <v>       0.19732857       0.32396096       0.80267269 </v>
   <v>       0.67604060       0.80267307       0.80267257 </v>
   <v>       0.00325553       0.66934316       0.99674491 </v>
   <v>       0.33065808       0.99674570       0.99674465 </v>
   <v>       0.62342718       0.37657444       0.37657565 </v>
   <v>       0.37657444       0.62342718       0.62342435 </v>
  </varray>
 </structure>
</modeling>
